 Entering Gaussian System, Link 0=/opt/software/gaussian/g16.c01/g16
 Initial command:
 /opt/software/gaussian/g16.c01/l1.exe "/scratch/petery/48816297/Gau-88885.inp" -scrdir="/scratch/petery/48816297/"
 Entering Link 1 = /opt/software/gaussian/g16.c01/l1.exe PID=     88886.
  
 Copyright (c) 1988-2019, Gaussian, Inc.  All Rights Reserved.
  
 This is part of the Gaussian(R) 16 program.  It is based on
 the Gaussian(R) 09 system (copyright 2009, Gaussian, Inc.),
 the Gaussian(R) 03 system (copyright 2003, Gaussian, Inc.),
 the Gaussian(R) 98 system (copyright 1998, Gaussian, Inc.),
 the Gaussian(R) 94 system (copyright 1995, Gaussian, Inc.),
 the Gaussian 92(TM) system (copyright 1992, Gaussian, Inc.),
 the Gaussian 90(TM) system (copyright 1990, Gaussian, Inc.),
 the Gaussian 88(TM) system (copyright 1988, Gaussian, Inc.),
 the Gaussian 86(TM) system (copyright 1986, Carnegie Mellon
 University), and the Gaussian 82(TM) system (copyright 1983,
 Carnegie Mellon University). Gaussian is a federally registered
 trademark of Gaussian, Inc.
  
 This software contains proprietary and confidential information,
 including trade secrets, belonging to Gaussian, Inc.
  
 This software is provided under written license and may be
 used, copied, transmitted, or stored only in accord with that
 written license.
  
 The following legend is applicable only to US Government
 contracts under FAR:
  
                    RESTRICTED RIGHTS LEGEND
  
 Use, reproduction and disclosure by the US Government is
 subject to restrictions as set forth in subparagraphs (a)
 and (c) of the Commercial Computer Software - Restricted
 Rights clause in FAR 52.227-19.
  
 Gaussian, Inc.
 340 Quinnipiac St., Bldg. 40, Wallingford CT 06492
  
  
 ---------------------------------------------------------------
 Warning -- This program may not be used in any manner that
 competes with the business of Gaussian, Inc. or will provide
 assistance to any competitor of Gaussian, Inc.  The licensee
 of this program is prohibited from giving any competitor of
 Gaussian, Inc. access to this program.  By using this program,
 the user acknowledges that Gaussian, Inc. is engaged in the
 business of creating and licensing software in the field of
 computational chemistry and represents and warrants to the
 licensee that it is not a competitor of Gaussian, Inc. and that
 it will not use this program in any manner prohibited above.
 ---------------------------------------------------------------
  

 Cite this work as:
 Gaussian 16, Revision C.01,
 M. J. Frisch, G. W. Trucks, H. B. Schlegel, G. E. Scuseria, 
 M. A. Robb, J. R. Cheeseman, G. Scalmani, V. Barone, 
 G. A. Petersson, H. Nakatsuji, X. Li, M. Caricato, A. V. Marenich, 
 J. Bloino, B. G. Janesko, R. Gomperts, B. Mennucci, H. P. Hratchian, 
 J. V. Ortiz, A. F. Izmaylov, J. L. Sonnenberg, D. Williams-Young, 
 F. Ding, F. Lipparini, F. Egidi, J. Goings, B. Peng, A. Petrone, 
 T. Henderson, D. Ranasinghe, V. G. Zakrzewski, J. Gao, N. Rega, 
 G. Zheng, W. Liang, M. Hada, M. Ehara, K. Toyota, R. Fukuda, 
 J. Hasegawa, M. Ishida, T. Nakajima, Y. Honda, O. Kitao, H. Nakai, 
 T. Vreven, K. Throssell, J. A. Montgomery, Jr., J. E. Peralta, 
 F. Ogliaro, M. J. Bearpark, J. J. Heyd, E. N. Brothers, K. N. Kudin, 
 V. N. Staroverov, T. A. Keith, R. Kobayashi, J. Normand, 
 K. Raghavachari, A. P. Rendell, J. C. Burant, S. S. Iyengar, 
 J. Tomasi, M. Cossi, J. M. Millam, M. Klene, C. Adamo, R. Cammi, 
 J. W. Ochterski, R. L. Martin, K. Morokuma, O. Farkas, 
 J. B. Foresman, and D. J. Fox, Gaussian, Inc., Wallingford CT, 2019.
 
 ******************************************
 Gaussian 16:  ES64L-G16RevC.01  3-Jul-2019
                25-Oct-2022 
 ******************************************
 %chk=4cyano.chk
 %mem=75000mb
 %nproc=32
 Will use up to   32 processors via shared memory.
 ---------------------------------------------
 #p scf=tight opt aug-cc-PVTZ B3LYP NoSymmetry
 ---------------------------------------------
 1/18=20,19=15,26=3,38=1/1,3;
 2/9=110,12=2,15=1,17=6,18=5,40=1/2;
 3/5=16,6=1,7=10,11=2,25=1,30=1,71=1,74=-5/1,2,3;
 4//1;
 5/5=2,32=2,38=5/2;
 6/7=2,8=2,9=2,10=2,28=1/1;
 7/30=1/1,2,3,16;
 1/18=20,19=15,26=3/3(2);
 2/9=110,15=1/2;
 99//99;
 2/9=110,15=1/2;
 3/5=16,6=1,7=10,11=2,25=1,30=1,71=1,74=-5/1,2,3;
 4/5=5,16=3,69=1/1;
 5/5=2,32=2,38=5/2;
 7/30=1/1,2,3,16;
 1/18=20,19=15,26=3/3(-5);
 2/9=110,15=1/2;
 6/7=2,8=2,9=2,10=2,19=2,28=1/1;
 99/9=1/99;
 Leave Link    1 at Tue Oct 25 12:19:25 2022, MaxMem=  9830400000 cpu:              35.1 elap:               1.2
 (Enter /opt/software/gaussian/g16.c01/l101.exe)
 ----------
 4cyanp Opt
 ----------
 Symbolic Z-matrix:
 Charge =  0 Multiplicity = 1
 C                    -0.60217   2.3018    0.36354 
 N                     0.52875   1.43156  -0.03388 
 H                     0.51144   0.59784   0.55587 
 H                     0.33406   1.06899  -0.97184 
 C                    -0.39396   3.69072  -0.22478 
 H                    -1.11563   4.39872   0.19836 
 H                    -0.52756   3.69525  -1.3122 
 H                     0.60719   4.07358   0.00226 
 C                    -1.92858   1.68866  -0.10104 
 H                    -0.61978   2.35776   1.4571 
 O                    -2.08319   0.56164  -0.55075 
 O                    -2.98767   2.50551   0.05662 
 H                    -3.74474   1.98413  -0.28422 
 
 ITRead=  0  0  0  0  0  0  0  0  0  0  0  0  0
 MicOpt= -1 -1 -1 -1 -1 -1 -1 -1 -1 -1 -1 -1 -1
 NAtoms=     13 NQM=       13 NQMF=       0 NMMI=      0 NMMIF=      0
                NMic=       0 NMicF=      0.
                    Isotopes and Nuclear Properties:
 (Nuclear quadrupole moments (NQMom) in fm**2, nuclear magnetic moments (NMagM)
  in nuclear magnetons)

  Atom         1           2           3           4           5           6           7           8           9          10
 IAtWgt=          12          14           1           1          12           1           1           1          12           1
 AtmWgt=  12.0000000  14.0030740   1.0078250   1.0078250  12.0000000   1.0078250   1.0078250   1.0078250  12.0000000   1.0078250
 NucSpn=           0           2           1           1           0           1           1           1           0           1
 AtZEff=  -0.0000000  -0.0000000  -0.0000000  -0.0000000  -0.0000000  -0.0000000  -0.0000000  -0.0000000  -0.0000000  -0.0000000
 NQMom=    0.0000000   2.0440000   0.0000000   0.0000000   0.0000000   0.0000000   0.0000000   0.0000000   0.0000000   0.0000000
 NMagM=    0.0000000   0.4037610   2.7928460   2.7928460   0.0000000   2.7928460   2.7928460   2.7928460   0.0000000   2.7928460
 AtZNuc=   6.0000000   7.0000000   1.0000000   1.0000000   6.0000000   1.0000000   1.0000000   1.0000000   6.0000000   1.0000000

  Atom        11          12          13
 IAtWgt=          16          16           1
 AtmWgt=  15.9949146  15.9949146   1.0078250
 NucSpn=           0           0           1
 AtZEff=  -0.0000000  -0.0000000  -0.0000000
 NQMom=    0.0000000   0.0000000   0.0000000
 NMagM=    0.0000000   0.0000000   2.7928460
 AtZNuc=   8.0000000   8.0000000   1.0000000
 Leave Link  101 at Tue Oct 25 12:19:26 2022, MaxMem=  9830400000 cpu:              13.0 elap:               0.5
 (Enter /opt/software/gaussian/g16.c01/l103.exe)

 GradGradGradGradGradGradGradGradGradGradGradGradGradGradGradGradGradGrad
 Berny optimization.
 Initialization pass.
                           ----------------------------
                           !    Initial Parameters    !
                           ! (Angstroms and Degrees)  !
 --------------------------                            --------------------------
 ! Name  Definition              Value          Derivative Info.                !
 --------------------------------------------------------------------------------
 ! R1    R(1,2)                  1.4813         estimate D2E/DX2                !
 ! R2    R(1,5)                  1.5227         estimate D2E/DX2                !
 ! R3    R(1,9)                  1.5333         estimate D2E/DX2                !
 ! R4    R(1,10)                 1.0951         estimate D2E/DX2                !
 ! R5    R(2,3)                  1.0214         estimate D2E/DX2                !
 ! R6    R(2,4)                  1.0243         estimate D2E/DX2                !
 ! R7    R(5,6)                  1.096          estimate D2E/DX2                !
 ! R8    R(5,7)                  1.0956         estimate D2E/DX2                !
 ! R9    R(5,8)                  1.0956         estimate D2E/DX2                !
 ! R10   R(9,11)                 1.2232         estimate D2E/DX2                !
 ! R11   R(9,12)                 1.3468         estimate D2E/DX2                !
 ! R12   R(12,13)                0.9804         estimate D2E/DX2                !
 ! A1    A(2,1,5)              109.1365         estimate D2E/DX2                !
 ! A2    A(2,1,9)              110.1345         estimate D2E/DX2                !
 ! A3    A(2,1,10)             108.0715         estimate D2E/DX2                !
 ! A4    A(5,1,9)              111.4669         estimate D2E/DX2                !
 ! A5    A(5,1,10)             109.9624         estimate D2E/DX2                !
 ! A6    A(9,1,10)             108.0034         estimate D2E/DX2                !
 ! A7    A(1,2,3)              108.1615         estimate D2E/DX2                !
 ! A8    A(1,2,4)              107.9703         estimate D2E/DX2                !
 ! A9    A(3,2,4)              103.6853         estimate D2E/DX2                !
 ! A10   A(1,5,6)              110.4901         estimate D2E/DX2                !
 ! A11   A(1,5,7)              111.7514         estimate D2E/DX2                !
 ! A12   A(1,5,8)              111.3229         estimate D2E/DX2                !
 ! A13   A(6,5,7)              107.472          estimate D2E/DX2                !
 ! A14   A(6,5,8)              107.2143         estimate D2E/DX2                !
 ! A15   A(7,5,8)              108.4002         estimate D2E/DX2                !
 ! A16   A(1,9,11)             126.0962         estimate D2E/DX2                !
 ! A17   A(1,9,12)             113.7199         estimate D2E/DX2                !
 ! A18   A(11,9,12)            120.1629         estimate D2E/DX2                !
 ! A19   A(9,12,13)            104.1233         estimate D2E/DX2                !
 ! D1    D(5,1,2,3)            165.1769         estimate D2E/DX2                !
 ! D2    D(5,1,2,4)            -83.2208         estimate D2E/DX2                !
 ! D3    D(9,1,2,3)            -72.1529         estimate D2E/DX2                !
 ! D4    D(9,1,2,4)             39.4495         estimate D2E/DX2                !
 ! D5    D(10,1,2,3)            45.6159         estimate D2E/DX2                !
 ! D6    D(10,1,2,4)           157.2182         estimate D2E/DX2                !
 ! D7    D(2,1,5,6)           -169.838          estimate D2E/DX2                !
 ! D8    D(2,1,5,7)             70.5459         estimate D2E/DX2                !
 ! D9    D(2,1,5,8)            -50.8243         estimate D2E/DX2                !
 ! D10   D(9,1,5,6)             68.2933         estimate D2E/DX2                !
 ! D11   D(9,1,5,7)            -51.3227         estimate D2E/DX2                !
 ! D12   D(9,1,5,8)           -172.693          estimate D2E/DX2                !
 ! D13   D(10,1,5,6)           -51.4542         estimate D2E/DX2                !
 ! D14   D(10,1,5,7)          -171.0703         estimate D2E/DX2                !
 ! D15   D(10,1,5,8)            67.5595         estimate D2E/DX2                !
 ! D16   D(2,1,9,11)            10.39           estimate D2E/DX2                !
 ! D17   D(2,1,9,12)          -171.2862         estimate D2E/DX2                !
 ! D18   D(5,1,9,11)           131.6794         estimate D2E/DX2                !
 ! D19   D(5,1,9,12)           -49.9968         estimate D2E/DX2                !
 ! D20   D(10,1,9,11)         -107.4208         estimate D2E/DX2                !
 ! D21   D(10,1,9,12)           70.9029         estimate D2E/DX2                !
 ! D22   D(1,9,12,13)          179.6513         estimate D2E/DX2                !
 ! D23   D(11,9,12,13)          -1.9152         estimate D2E/DX2                !
 --------------------------------------------------------------------------------
 Trust Radius=3.00D-01 FncErr=1.00D-07 GrdErr=1.00D-06 EigMax=2.50D+02 EigMin=1.00D-04
 Number of steps in this run=     64 maximum allowed number of steps=    100.
 GradGradGradGradGradGradGradGradGradGradGradGradGradGradGradGradGradGrad

 Leave Link  103 at Tue Oct 25 12:19:26 2022, MaxMem=  9830400000 cpu:               0.7 elap:               0.0
 (Enter /opt/software/gaussian/g16.c01/l202.exe)
                          Input orientation:                          
 ---------------------------------------------------------------------
 Center     Atomic      Atomic             Coordinates (Angstroms)
 Number     Number       Type             X           Y           Z
 ---------------------------------------------------------------------
      1          6           0       -0.602170    2.301800    0.363540
      2          7           0        0.528750    1.431560   -0.033880
      3          1           0        0.511440    0.597840    0.555870
      4          1           0        0.334060    1.068990   -0.971840
      5          6           0       -0.393960    3.690720   -0.224780
      6          1           0       -1.115630    4.398720    0.198360
      7          1           0       -0.527560    3.695250   -1.312200
      8          1           0        0.607190    4.073580    0.002260
      9          6           0       -1.928580    1.688660   -0.101040
     10          1           0       -0.619780    2.357760    1.457100
     11          8           0       -2.083190    0.561640   -0.550750
     12          8           0       -2.987670    2.505510    0.056620
     13          1           0       -3.744740    1.984130   -0.284220
 ---------------------------------------------------------------------
                    Distance matrix (angstroms):
                    1          2          3          4          5
     1  C    0.000000
     2  N    1.481297   0.000000
     3  H    2.044651   1.021369   0.000000
     4  H    2.044404   1.024271   1.608522   0.000000
     5  C    1.522685   2.447783   3.315882   2.821627   0.000000
     6  H    2.165179   3.400288   4.149923   3.815504   1.095956
     7  H    2.180682   2.806098   3.763397   2.784865   1.095606
     8  H    2.175380   2.643431   3.520855   3.170336   1.095641
     9  C    1.533342   2.471656   2.752293   2.502364   2.525592
    10  H    1.095132   2.097615   2.277980   2.910410   2.157892
    11  O    2.461200   2.801097   2.820997   2.505557   3.570840
    12  O    2.413775   3.677876   4.016494   3.762341   2.865526
    13  H    3.224322   4.316332   4.554407   4.236380   3.760812
                    6          7          8          9         10
     6  H    0.000000
     7  H    1.767056   0.000000
     8  H    1.764166   1.777244   0.000000
     9  C    2.845163   2.730599   3.482620   0.000000
    10  H    2.448635   3.076753   2.562431   2.142067   0.000000
    11  O    4.027471   3.580405   4.458440   1.223241   3.065791
    12  O    2.666246   3.056353   3.922348   1.346764   2.755009
    13  H    3.602131   3.786149   4.836028   1.849133   3.596828
                   11         12         13
    11  O    0.000000
    12  O    2.228366   0.000000
    13  H    2.203466   0.980390   0.000000
 Symmetry turned off by external request.
 Stoichiometry    C3H7NO2
 Framework group  C1[X(C3H7NO2)]
 Deg. of freedom    33
 Full point group                 C1      NOp   1
 Rotational constants (GHZ):           5.0098894           3.2620686           2.1517836
 Leave Link  202 at Tue Oct 25 12:19:26 2022, MaxMem=  9830400000 cpu:               1.0 elap:               0.1
 (Enter /opt/software/gaussian/g16.c01/l301.exe)
 Standard basis: Aug-CC-pVTZ (5D, 7F)
 Ernie: Thresh=  0.10000D-02 Tol=  0.10000D-05 Strict=F.
 Ernie:  18 primitive shells out of 257 were deleted.
   437 basis functions,   621 primitive gaussians,   505 cartesian basis functions
    24 alpha electrons       24 beta electrons
       nuclear repulsion energy       248.4837826582 Hartrees.
 IExCor=  402 DFT=T Ex+Corr=B3LYP ExCW=0 ScaHFX=  0.200000
 ScaDFX=  0.800000  0.720000  1.000000  0.810000 ScalE2=  1.000000  1.000000
 IRadAn=      5 IRanWt=     -1 IRanGd=            0 ICorTp=0 IEmpDi=  4
 NAtoms=   13 NActive=   13 NUniq=   13 SFac= 1.00D+00 NAtFMM=   60 NAOKFM=F Big=F
 Integral buffers will be    131072 words long.
 Raffenetti 2 integral format.
 Two-electron integral symmetry is turned off.
 Leave Link  301 at Tue Oct 25 12:19:27 2022, MaxMem=  9830400000 cpu:               3.5 elap:               0.2
 (Enter /opt/software/gaussian/g16.c01/l302.exe)
 NPDir=0 NMtPBC=     1 NCelOv=     1 NCel=       1 NClECP=     1 NCelD=      1
         NCelK=      1 NCelE2=     1 NClLst=     1 CellRange=     0.0.
 One-electron integrals computed using PRISM.
 NBasis=   437 RedAO= T EigKep=  6.38D-06  NBF=   437
 NBsUse=   437 1.00D-06 EigRej= -1.00D+00 NBFU=   437
 Precomputing XC quadrature grid using
 IXCGrd= 4 IRadAn=           5 IRanWt=          -1 IRanGd=           0 AccXCQ= 0.00D+00.
 Generated NRdTot=       0 NPtTot=           0 NUsed=           0 NTot=          32
 NSgBfM=   505   505   505   505   505 MxSgAt=    13 MxSgA2=    13.
 Leave Link  302 at Tue Oct 25 12:19:28 2022, MaxMem=  9830400000 cpu:              43.0 elap:               1.8
 (Enter /opt/software/gaussian/g16.c01/l303.exe)
 DipDrv:  MaxL=1.
 Leave Link  303 at Tue Oct 25 12:19:29 2022, MaxMem=  9830400000 cpu:               4.0 elap:               0.2
 (Enter /opt/software/gaussian/g16.c01/l401.exe)
 ExpMin= 2.53D-02 ExpMax= 1.53D+04 ExpMxC= 5.22D+02 IAcc=3 IRadAn=         5 AccDes= 0.00D+00
 Harris functional with IExCor=  402 and IRadAn=       5 diagonalized for initial guess.
 HarFok:  IExCor=  402 AccDes= 0.00D+00 IRadAn=         5 IDoV= 1 UseB2=F ITyADJ=14
 ICtDFT=  3500011 ScaDFX=  1.000000  1.000000  1.000000  1.000000
 FoFCou: FMM=F IPFlag=           0 FMFlag=      100000 FMFlg1=           0
         NFxFlg=           0 DoJE=T BraDBF=F KetDBF=T FulRan=T
         wScrn=  0.000000 ICntrl=       500 IOpCl=  0 I1Cent=   200000004 NGrid=           0
         NMat0=    1 NMatS0=      1 NMatT0=    0 NMatD0=    1 NMtDS0=    0 NMtDT0=    0
 Symmetry not used in FoFCou.
 Harris En= -323.920152473113    
 JPrj=0 DoOrth=F DoCkMO=F.
 Leave Link  401 at Tue Oct 25 12:19:30 2022, MaxMem=  9830400000 cpu:              42.1 elap:               1.4
 (Enter /opt/software/gaussian/g16.c01/l502.exe)
 Two-electron integral symmetry not used.
 Closed shell SCF:
 Using DIIS extrapolation, IDIIS=  1040.
 NGot=  9830400000 LenX=  9829870397 LenY=  9829614867
 Requested convergence on RMS density matrix=1.00D-08 within 128 cycles.
 Requested convergence on MAX density matrix=1.00D-06.
 Requested convergence on             energy=1.00D-06.
 No special actions if energy rises.
 Fock matrices will be formed incrementally for  20 cycles.

 Cycle   1  Pass 1  IDiag  1:
 FoFJK:  IHMeth= 1 ICntrl=       0 DoSepK=F KAlg= 0 I1Cent=           0 FoldK=F
 IRaf= 990000000 NMat=       1 IRICut=       1 DoRegI=T DoRafI=F ISym2E= 0 IDoP0=0 IntGTp=1.
 FoFCou: FMM=F IPFlag=           0 FMFlag=      100000 FMFlg1=           0
         NFxFlg=           0 DoJE=F BraDBF=F KetDBF=F FulRan=T
         wScrn=  0.000000 ICntrl=         0 IOpCl=  0 I1Cent=           0 NGrid=           0
         NMat0=    1 NMatS0=      1 NMatT0=    0 NMatD0=    1 NMtDS0=    0 NMtDT0=    0
 Symmetry not used in FoFCou.
 E= -323.648726241040    
 DIIS: error= 1.77D-02 at cycle   1 NSaved=   1.
 NSaved= 1 IEnMin= 1 EnMin= -323.648726241040     IErMin= 1 ErrMin= 1.77D-02
 ErrMax= 1.77D-02  0.00D+00 EMaxC= 1.00D-01 BMatC= 3.12D-01 BMatP= 3.12D-01
 IDIUse=3 WtCom= 8.23D-01 WtEn= 1.77D-01
 Coeff-Com:  0.100D+01
 Coeff-En:   0.100D+01
 Coeff:      0.100D+01
 Gap=     0.145 Goal=   None    Shift=    0.000
 GapD=    0.145 DampG=1.000 DampE=0.500 DampFc=0.5000 IDamp=-1.
 Damping current iteration by 5.00D-01
 RMSDP=1.97D-03 MaxDP=7.77D-02              OVMax= 2.46D-01

 Cycle   2  Pass 1  IDiag  1:
 RMSU=  9.70D-04    CP:  9.77D-01
 E= -323.708810752219     Delta-E=       -0.060084511179 Rises=F Damp=T
 DIIS: error= 6.17D-03 at cycle   2 NSaved=   2.
 NSaved= 2 IEnMin= 2 EnMin= -323.708810752219     IErMin= 2 ErrMin= 6.17D-03
 ErrMax= 6.17D-03  0.00D+00 EMaxC= 1.00D-01 BMatC= 4.07D-02 BMatP= 3.12D-01
 IDIUse=3 WtCom= 9.38D-01 WtEn= 6.17D-02
 Coeff-Com:  0.215D+00 0.785D+00
 Coeff-En:   0.363D+00 0.637D+00
 Coeff:      0.225D+00 0.775D+00
 Gap=     0.242 Goal=   None    Shift=    0.000
 RMSDP=5.94D-04 MaxDP=2.53D-02 DE=-6.01D-02 OVMax= 1.74D-01

 Cycle   3  Pass 1  IDiag  1:
 RMSU=  5.71D-04    CP:  9.77D-01  8.32D-01
 E= -323.857825477352     Delta-E=       -0.149014725133 Rises=F Damp=F
 DIIS: error= 5.44D-03 at cycle   3 NSaved=   3.
 NSaved= 3 IEnMin= 3 EnMin= -323.857825477352     IErMin= 3 ErrMin= 5.44D-03
 ErrMax= 5.44D-03  0.00D+00 EMaxC= 1.00D-01 BMatC= 2.98D-02 BMatP= 4.07D-02
 IDIUse=3 WtCom= 9.46D-01 WtEn= 5.44D-02
 Coeff-Com:  0.827D-01 0.472D+00 0.445D+00
 Coeff-En:   0.000D+00 0.000D+00 0.100D+01
 Coeff:      0.782D-01 0.446D+00 0.476D+00
 Gap=     0.245 Goal=   None    Shift=    0.000
 RMSDP=2.86D-04 MaxDP=1.83D-02 DE=-1.49D-01 OVMax= 7.98D-02

 Cycle   4  Pass 1  IDiag  1:
 RMSU=  2.56D-04    CP:  9.77D-01  8.74D-01  7.88D-01
 E= -323.876377955338     Delta-E=       -0.018552477986 Rises=F Damp=F
 DIIS: error= 2.52D-03 at cycle   4 NSaved=   4.
 NSaved= 4 IEnMin= 4 EnMin= -323.876377955338     IErMin= 4 ErrMin= 2.52D-03
 ErrMax= 2.52D-03  0.00D+00 EMaxC= 1.00D-01 BMatC= 5.80D-03 BMatP= 2.98D-02
 IDIUse=3 WtCom= 9.75D-01 WtEn= 2.52D-02
 Coeff-Com: -0.924D-03 0.106D+00 0.315D+00 0.581D+00
 Coeff-En:   0.000D+00 0.000D+00 0.190D+00 0.810D+00
 Coeff:     -0.901D-03 0.103D+00 0.312D+00 0.586D+00
 Gap=     0.237 Goal=   None    Shift=    0.000
 RMSDP=1.11D-04 MaxDP=5.02D-03 DE=-1.86D-02 OVMax= 2.55D-02

 Cycle   5  Pass 1  IDiag  1:
 RMSU=  7.48D-05    CP:  9.77D-01  8.84D-01  8.33D-01  6.97D-01
 E= -323.880324196271     Delta-E=       -0.003946240933 Rises=F Damp=F
 DIIS: error= 5.50D-04 at cycle   5 NSaved=   5.
 NSaved= 5 IEnMin= 5 EnMin= -323.880324196271     IErMin= 5 ErrMin= 5.50D-04
 ErrMax= 5.50D-04  0.00D+00 EMaxC= 1.00D-01 BMatC= 3.15D-04 BMatP= 5.80D-03
 IDIUse=3 WtCom= 9.94D-01 WtEn= 5.50D-03
 Coeff-Com: -0.557D-02 0.219D-01 0.133D+00 0.315D+00 0.535D+00
 Coeff-En:   0.000D+00 0.000D+00 0.000D+00 0.000D+00 0.100D+01
 Coeff:     -0.554D-02 0.217D-01 0.133D+00 0.314D+00 0.537D+00
 Gap=     0.240 Goal=   None    Shift=    0.000
 RMSDP=2.95D-05 MaxDP=1.16D-03 DE=-3.95D-03 OVMax= 4.26D-03

 Cycle   6  Pass 1  IDiag  1:
 RMSU=  2.18D-05    CP:  9.77D-01  8.87D-01  8.37D-01  7.12D-01  7.49D-01
 E= -323.880563121927     Delta-E=       -0.000238925656 Rises=F Damp=F
 DIIS: error= 2.10D-04 at cycle   6 NSaved=   6.
 NSaved= 6 IEnMin= 6 EnMin= -323.880563121927     IErMin= 6 ErrMin= 2.10D-04
 ErrMax= 2.10D-04  0.00D+00 EMaxC= 1.00D-01 BMatC= 1.81D-05 BMatP= 3.15D-04
 IDIUse=3 WtCom= 9.98D-01 WtEn= 2.10D-03
 Coeff-Com: -0.227D-02 0.210D-02 0.377D-01 0.992D-01 0.262D+00 0.602D+00
 Coeff-En:   0.000D+00 0.000D+00 0.000D+00 0.000D+00 0.000D+00 0.100D+01
 Coeff:     -0.227D-02 0.210D-02 0.376D-01 0.990D-01 0.261D+00 0.603D+00
 Gap=     0.240 Goal=   None    Shift=    0.000
 RMSDP=7.48D-06 MaxDP=4.85D-04 DE=-2.39D-04 OVMax= 8.20D-04

 Cycle   7  Pass 1  IDiag  1:
 RMSU=  5.93D-06    CP:  9.77D-01  8.87D-01  8.41D-01  7.15D-01  7.57D-01
                    CP:  8.27D-01
 E= -323.880577626010     Delta-E=       -0.000014504083 Rises=F Damp=F
 DIIS: error= 3.24D-05 at cycle   7 NSaved=   7.
 NSaved= 7 IEnMin= 7 EnMin= -323.880577626010     IErMin= 7 ErrMin= 3.24D-05
 ErrMax= 3.24D-05  0.00D+00 EMaxC= 1.00D-01 BMatC= 8.68D-07 BMatP= 1.81D-05
 IDIUse=1 WtCom= 1.00D+00 WtEn= 0.00D+00
 Coeff-Com: -0.588D-03-0.208D-03 0.107D-01 0.290D-01 0.952D-01 0.269D+00
 Coeff-Com:  0.597D+00
 Coeff:     -0.588D-03-0.208D-03 0.107D-01 0.290D-01 0.952D-01 0.269D+00
 Coeff:      0.597D+00
 Gap=     0.239 Goal=   None    Shift=    0.000
 RMSDP=1.86D-06 MaxDP=7.74D-05 DE=-1.45D-05 OVMax= 2.17D-04

 Cycle   8  Pass 1  IDiag  1:
 RMSU=  1.69D-06    CP:  9.77D-01  8.88D-01  8.41D-01  7.14D-01  7.62D-01
                    CP:  8.31D-01  9.00D-01
 E= -323.880578276530     Delta-E=       -0.000000650520 Rises=F Damp=F
 DIIS: error= 1.07D-05 at cycle   8 NSaved=   8.
 NSaved= 8 IEnMin= 8 EnMin= -323.880578276530     IErMin= 8 ErrMin= 1.07D-05
 ErrMax= 1.07D-05  0.00D+00 EMaxC= 1.00D-01 BMatC= 9.15D-08 BMatP= 8.68D-07
 IDIUse=1 WtCom= 1.00D+00 WtEn= 0.00D+00
 Coeff-Com:  0.279D-04-0.374D-03 0.703D-03 0.184D-02 0.147D-01 0.517D-01
 Coeff-Com:  0.270D+00 0.662D+00
 Coeff:      0.279D-04-0.374D-03 0.703D-03 0.184D-02 0.147D-01 0.517D-01
 Coeff:      0.270D+00 0.662D+00
 Gap=     0.239 Goal=   None    Shift=    0.000
 RMSDP=6.61D-07 MaxDP=4.28D-05 DE=-6.51D-07 OVMax= 9.64D-05

 Cycle   9  Pass 1  IDiag  1:
 RMSU=  5.22D-07    CP:  9.77D-01  8.87D-01  8.41D-01  7.14D-01  7.62D-01
                    CP:  8.31D-01  9.06D-01  8.00D-01
 E= -323.880578340898     Delta-E=       -0.000000064368 Rises=F Damp=F
 DIIS: error= 4.38D-06 at cycle   9 NSaved=   9.
 NSaved= 9 IEnMin= 9 EnMin= -323.880578340898     IErMin= 9 ErrMin= 4.38D-06
 ErrMax= 4.38D-06  0.00D+00 EMaxC= 1.00D-01 BMatC= 1.27D-08 BMatP= 9.15D-08
 IDIUse=1 WtCom= 1.00D+00 WtEn= 0.00D+00
 Coeff-Com:  0.544D-04-0.188D-03-0.363D-03-0.108D-02 0.901D-03 0.613D-02
 Coeff-Com:  0.920D-01 0.349D+00 0.553D+00
 Coeff:      0.544D-04-0.188D-03-0.363D-03-0.108D-02 0.901D-03 0.613D-02
 Coeff:      0.920D-01 0.349D+00 0.553D+00
 Gap=     0.239 Goal=   None    Shift=    0.000
 RMSDP=2.22D-07 MaxDP=1.76D-05 DE=-6.44D-08 OVMax= 2.56D-05

 Cycle  10  Pass 1  IDiag  1:
 RMSU=  1.31D-07    CP:  9.77D-01  8.87D-01  8.41D-01  7.14D-01  7.63D-01
                    CP:  8.32D-01  9.18D-01  8.52D-01  7.97D-01
 E= -323.880578350644     Delta-E=       -0.000000009746 Rises=F Damp=F
 DIIS: error= 6.31D-07 at cycle  10 NSaved=  10.
 NSaved=10 IEnMin=10 EnMin= -323.880578350644     IErMin=10 ErrMin= 6.31D-07
 ErrMax= 6.31D-07  0.00D+00 EMaxC= 1.00D-01 BMatC= 4.81D-10 BMatP= 1.27D-08
 IDIUse=1 WtCom= 1.00D+00 WtEn= 0.00D+00
 Coeff-Com:  0.181D-04-0.459D-04-0.194D-03-0.585D-03-0.675D-03-0.126D-02
 Coeff-Com:  0.180D-01 0.946D-01 0.222D+00 0.668D+00
 Coeff:      0.181D-04-0.459D-04-0.194D-03-0.585D-03-0.675D-03-0.126D-02
 Coeff:      0.180D-01 0.946D-01 0.222D+00 0.668D+00
 Gap=     0.239 Goal=   None    Shift=    0.000
 RMSDP=4.76D-08 MaxDP=2.41D-06 DE=-9.75D-09 OVMax= 4.87D-06

 Cycle  11  Pass 1  IDiag  1:
 RMSU=  4.06D-08    CP:  9.77D-01  8.87D-01  8.41D-01  7.14D-01  7.63D-01
                    CP:  8.33D-01  9.19D-01  8.56D-01  8.27D-01  9.27D-01
 E= -323.880578351008     Delta-E=       -0.000000000364 Rises=F Damp=F
 DIIS: error= 3.40D-07 at cycle  11 NSaved=  11.
 NSaved=11 IEnMin=11 EnMin= -323.880578351008     IErMin=11 ErrMin= 3.40D-07
 ErrMax= 3.40D-07  0.00D+00 EMaxC= 1.00D-01 BMatC= 4.88D-11 BMatP= 4.81D-10
 IDIUse=1 WtCom= 1.00D+00 WtEn= 0.00D+00
 Coeff-Com: -0.293D-06 0.492D-06-0.309D-04-0.104D-03-0.289D-03-0.919D-03
 Coeff-Com: -0.173D-02 0.231D-02 0.308D-01 0.279D+00 0.691D+00
 Coeff:     -0.293D-06 0.492D-06-0.309D-04-0.104D-03-0.289D-03-0.919D-03
 Coeff:     -0.173D-02 0.231D-02 0.308D-01 0.279D+00 0.691D+00
 Gap=     0.239 Goal=   None    Shift=    0.000
 RMSDP=1.37D-08 MaxDP=6.16D-07 DE=-3.64D-10 OVMax= 1.37D-06

 Cycle  12  Pass 1  IDiag  1:
 RMSU=  8.99D-09    CP:  9.77D-01  8.87D-01  8.41D-01  7.14D-01  7.63D-01
                    CP:  8.32D-01  9.20D-01  8.59D-01  8.34D-01  9.54D-01
                    CP:  8.41D-01
 E= -323.880578351056     Delta-E=       -0.000000000048 Rises=F Damp=F
 DIIS: error= 4.10D-08 at cycle  12 NSaved=  12.
 NSaved=12 IEnMin=12 EnMin= -323.880578351056     IErMin=12 ErrMin= 4.10D-08
 ErrMax= 4.10D-08  0.00D+00 EMaxC= 1.00D-01 BMatC= 1.15D-12 BMatP= 4.88D-11
 IDIUse=1 WtCom= 1.00D+00 WtEn= 0.00D+00
 Coeff-Com: -0.116D-05 0.232D-05 0.214D-05-0.658D-06-0.487D-04-0.209D-03
 Coeff-Com: -0.148D-02-0.441D-02-0.254D-02 0.427D-01 0.182D+00 0.784D+00
 Coeff:     -0.116D-05 0.232D-05 0.214D-05-0.658D-06-0.487D-04-0.209D-03
 Coeff:     -0.148D-02-0.441D-02-0.254D-02 0.427D-01 0.182D+00 0.784D+00
 Gap=     0.239 Goal=   None    Shift=    0.000
 RMSDP=3.20D-09 MaxDP=1.63D-07 DE=-4.84D-11 OVMax= 2.82D-07

 SCF Done:  E(RB3LYP) =  -323.880578351     A.U. after   12 cycles
            NFock= 12  Conv=0.32D-08     -V/T= 2.0066
 KE= 3.217699114585D+02 PE=-1.254788685407D+03 EE= 3.606544129394D+02
 Leave Link  502 at Tue Oct 25 12:20:37 2022, MaxMem=  9830400000 cpu:            2044.8 elap:              67.3
 (Enter /opt/software/gaussian/g16.c01/l601.exe)
 Copying SCF densities to generalized density rwf, IOpCl= 0 IROHF=0.

 **********************************************************************

            Population analysis using the SCF Density.

 **********************************************************************

 Alpha  occ. eigenvalues --  -19.19370 -19.13403 -14.30936 -10.31963 -10.23447
 Alpha  occ. eigenvalues --  -10.17706  -1.12538  -1.02703  -0.89952  -0.76302
 Alpha  occ. eigenvalues --   -0.67450  -0.59970  -0.52747  -0.50653  -0.49379
 Alpha  occ. eigenvalues --   -0.45701  -0.44410  -0.42546  -0.39599  -0.38034
 Alpha  occ. eigenvalues --   -0.37089  -0.33902  -0.29589  -0.26600
 Alpha virt. eigenvalues --   -0.02661  -0.01419   0.00061   0.00565   0.00978
 Alpha virt. eigenvalues --    0.03052   0.03376   0.03948   0.05018   0.05407
 Alpha virt. eigenvalues --    0.06374   0.06848   0.07678   0.08391   0.08437
 Alpha virt. eigenvalues --    0.08973   0.09551   0.10185   0.10658   0.11060
 Alpha virt. eigenvalues --    0.11708   0.12008   0.12832   0.13081   0.15432
 Alpha virt. eigenvalues --    0.15951   0.16826   0.17055   0.17781   0.18655
 Alpha virt. eigenvalues --    0.19183   0.19504   0.19787   0.20545   0.21549
 Alpha virt. eigenvalues --    0.21945   0.22468   0.23928   0.24518   0.25477
 Alpha virt. eigenvalues --    0.25866   0.26836   0.27172   0.27798   0.28490
 Alpha virt. eigenvalues --    0.29360   0.29609   0.29832   0.30519   0.31590
 Alpha virt. eigenvalues --    0.32764   0.33044   0.33693   0.34250   0.35045
 Alpha virt. eigenvalues --    0.35476   0.35962   0.36255   0.36778   0.37555
 Alpha virt. eigenvalues --    0.37819   0.38611   0.38943   0.40323   0.41873
 Alpha virt. eigenvalues --    0.42277   0.42689   0.44854   0.45105   0.45379
 Alpha virt. eigenvalues --    0.46229   0.47025   0.47392   0.47884   0.48960
 Alpha virt. eigenvalues --    0.50716   0.51418   0.51775   0.52362   0.54453
 Alpha virt. eigenvalues --    0.56443   0.58456   0.59321   0.60626   0.60802
 Alpha virt. eigenvalues --    0.61552   0.62060   0.63420   0.64549   0.65738
 Alpha virt. eigenvalues --    0.66344   0.66611   0.68047   0.68529   0.70213
 Alpha virt. eigenvalues --    0.70513   0.70930   0.71316   0.74158   0.74555
 Alpha virt. eigenvalues --    0.75101   0.76112   0.76455   0.77408   0.78511
 Alpha virt. eigenvalues --    0.79460   0.80058   0.81230   0.81524   0.82064
 Alpha virt. eigenvalues --    0.82755   0.84360   0.85844   0.86683   0.87803
 Alpha virt. eigenvalues --    0.88391   0.88864   0.89764   0.91356   0.91818
 Alpha virt. eigenvalues --    0.92405   0.93245   0.94654   0.95156   0.96814
 Alpha virt. eigenvalues --    0.97371   0.97996   0.99534   1.00036   1.01981
 Alpha virt. eigenvalues --    1.02716   1.04354   1.05257   1.05986   1.06864
 Alpha virt. eigenvalues --    1.08288   1.09845   1.10483   1.11245   1.12403
 Alpha virt. eigenvalues --    1.13201   1.13956   1.14502   1.15689   1.16575
 Alpha virt. eigenvalues --    1.18120   1.19614   1.21777   1.23212   1.24520
 Alpha virt. eigenvalues --    1.24831   1.25445   1.26936   1.27948   1.28013
 Alpha virt. eigenvalues --    1.29655   1.30679   1.31763   1.32181   1.33184
 Alpha virt. eigenvalues --    1.34858   1.36638   1.37672   1.38772   1.41093
 Alpha virt. eigenvalues --    1.42399   1.42631   1.44436   1.45382   1.47350
 Alpha virt. eigenvalues --    1.48678   1.49165   1.49632   1.50288   1.51901
 Alpha virt. eigenvalues --    1.53239   1.55331   1.56396   1.57013   1.57428
 Alpha virt. eigenvalues --    1.57848   1.61162   1.61362   1.63681   1.64937
 Alpha virt. eigenvalues --    1.66438   1.67283   1.67912   1.70597   1.71569
 Alpha virt. eigenvalues --    1.73451   1.75340   1.75645   1.76933   1.77308
 Alpha virt. eigenvalues --    1.78731   1.79613   1.83698   1.84764   1.88300
 Alpha virt. eigenvalues --    1.90563   1.92080   1.93450   1.93664   1.96127
 Alpha virt. eigenvalues --    1.97335   1.99524   2.01322   2.02649   2.03911
 Alpha virt. eigenvalues --    2.05996   2.08141   2.10560   2.11496   2.12395
 Alpha virt. eigenvalues --    2.13553   2.15213   2.16225   2.20224   2.21317
 Alpha virt. eigenvalues --    2.21813   2.23624   2.23905   2.26800   2.29335
 Alpha virt. eigenvalues --    2.31723   2.32033   2.32639   2.36752   2.37644
 Alpha virt. eigenvalues --    2.37832   2.39816   2.42303   2.44453   2.46203
 Alpha virt. eigenvalues --    2.48822   2.48989   2.54253   2.55492   2.57925
 Alpha virt. eigenvalues --    2.58840   2.59919   2.64653   2.69027   2.71187
 Alpha virt. eigenvalues --    2.73079   2.74720   2.77541   2.79949   2.85807
 Alpha virt. eigenvalues --    2.87392   2.97714   2.99610   3.03992   3.09401
 Alpha virt. eigenvalues --    3.11242   3.14167   3.16086   3.16616   3.17561
 Alpha virt. eigenvalues --    3.23870   3.27173   3.28782   3.30223   3.32128
 Alpha virt. eigenvalues --    3.34199   3.35453   3.36800   3.40383   3.41474
 Alpha virt. eigenvalues --    3.43527   3.46065   3.49643   3.52423   3.52785
 Alpha virt. eigenvalues --    3.55630   3.56781   3.59802   3.60111   3.61868
 Alpha virt. eigenvalues --    3.63298   3.67001   3.67878   3.69849   3.70803
 Alpha virt. eigenvalues --    3.74417   3.76949   3.77166   3.79168   3.82941
 Alpha virt. eigenvalues --    3.84038   3.85568   3.88495   3.88825   3.92468
 Alpha virt. eigenvalues --    3.93144   3.94627   3.96014   3.98749   4.01048
 Alpha virt. eigenvalues --    4.02764   4.04509   4.07832   4.08118   4.10401
 Alpha virt. eigenvalues --    4.11854   4.13180   4.18008   4.18686   4.20202
 Alpha virt. eigenvalues --    4.23355   4.24565   4.27483   4.29521   4.30871
 Alpha virt. eigenvalues --    4.33395   4.35503   4.36808   4.38586   4.40352
 Alpha virt. eigenvalues --    4.43307   4.46758   4.47546   4.49252   4.54380
 Alpha virt. eigenvalues --    4.54815   4.59346   4.61231   4.63798   4.65123
 Alpha virt. eigenvalues --    4.67610   4.69384   4.71025   4.71588   4.74648
 Alpha virt. eigenvalues --    4.77232   4.80411   4.83405   4.84453   4.85703
 Alpha virt. eigenvalues --    4.89041   4.89489   4.92387   4.95124   4.99108
 Alpha virt. eigenvalues --    5.00522   5.05353   5.08359   5.09086   5.10410
 Alpha virt. eigenvalues --    5.11407   5.13192   5.16062   5.21504   5.26205
 Alpha virt. eigenvalues --    5.30251   5.32521   5.36841   5.41440   5.48530
 Alpha virt. eigenvalues --    5.50272   5.51047   5.61004   5.64694   5.66875
 Alpha virt. eigenvalues --    5.69426   5.74842   5.79698   5.81483   5.82862
 Alpha virt. eigenvalues --    5.83541   5.90199   5.98876   6.02252   6.09278
 Alpha virt. eigenvalues --    6.15067   6.24795   6.29817   6.31524   6.38293
 Alpha virt. eigenvalues --    6.39408   6.41905   6.43358   6.45106   6.47680
 Alpha virt. eigenvalues --    6.54345   6.59676   6.64552   6.73435   6.73967
 Alpha virt. eigenvalues --    6.79942   6.82713   6.83510   6.85989   6.87778
 Alpha virt. eigenvalues --    6.92206   7.02993   7.04854   7.10528   7.17043
 Alpha virt. eigenvalues --    7.20045   7.34690   7.41149   7.47327   7.53375
 Alpha virt. eigenvalues --    7.75063   8.00226  14.48238  15.02536  15.99915
 Alpha virt. eigenvalues --   16.93619  17.31227  18.66025
          Condensed to atoms (all electrons):
               1          2          3          4          5          6
     1  C    5.197696  -0.441105   0.122900   0.073966   0.111847  -0.010500
     2  N   -0.441105   7.474783   0.178062   0.203804   0.016938   0.003284
     3  H    0.122900   0.178062   0.760678  -0.045316  -0.002830   0.000400
     4  H    0.073966   0.203804  -0.045316   0.723295   0.003690   0.002800
     5  C    0.111847   0.016938  -0.002830   0.003690   5.369668   0.416389
     6  H   -0.010500   0.003284   0.000400   0.002800   0.416389   0.452735
     7  H    0.007744   0.002974  -0.000370  -0.002978   0.385172  -0.017731
     8  H   -0.037206  -0.000722  -0.000659  -0.001591   0.438467  -0.029397
     9  C   -0.079408   0.152763  -0.063350  -0.031152  -0.024065  -0.020694
    10  H    0.416733  -0.038359  -0.012586   0.005442  -0.019584   0.002327
    11  O   -0.010859  -0.027829   0.024474  -0.005374   0.021706   0.003793
    12  O   -0.005514  -0.003516   0.004738  -0.004931   0.016735  -0.003011
    13  H   -0.016928   0.002838  -0.001121   0.001307  -0.007625  -0.002049
               7          8          9         10         11         12
     1  C    0.007744  -0.037206  -0.079408   0.416733  -0.010859  -0.005514
     2  N    0.002974  -0.000722   0.152763  -0.038359  -0.027829  -0.003516
     3  H   -0.000370  -0.000659  -0.063350  -0.012586   0.024474   0.004738
     4  H   -0.002978  -0.001591  -0.031152   0.005442  -0.005374  -0.004931
     5  C    0.385172   0.438467  -0.024065  -0.019584   0.021706   0.016735
     6  H   -0.017731  -0.029397  -0.020694   0.002327   0.003793  -0.003011
     7  H    0.426809  -0.003574  -0.019288   0.006816  -0.004832   0.009941
     8  H   -0.003574   0.436126   0.020499  -0.006508  -0.000861  -0.003316
     9  C   -0.019288   0.020499   5.195482  -0.032714   0.195057   0.084365
    10  H    0.006816  -0.006508  -0.032714   0.472721  -0.011725  -0.018747
    11  O   -0.004832  -0.000861   0.195057  -0.011725   8.670831  -0.072930
    12  O    0.009941  -0.003316   0.084365  -0.018747  -0.072930   8.251881
    13  H    0.001055   0.000579   0.066388   0.002260  -0.044341   0.127500
              13
     1  C   -0.016928
     2  N    0.002838
     3  H   -0.001121
     4  H    0.001307
     5  C   -0.007625
     6  H   -0.002049
     7  H    0.001055
     8  H    0.000579
     9  C    0.066388
    10  H    0.002260
    11  O   -0.044341
    12  O    0.127500
    13  H    0.670189
 Mulliken charges:
               1
     1  C    0.670635
     2  N   -0.523914
     3  H    0.034982
     4  H    0.077039
     5  C   -0.726507
     6  H    0.201654
     7  H    0.208263
     8  H    0.188163
     9  C    0.556118
    10  H    0.233924
    11  O   -0.737109
    12  O   -0.383195
    13  H    0.199948
 Sum of Mulliken charges =  -0.00000
 Mulliken charges with hydrogens summed into heavy atoms:
               1
     1  C    0.904559
     2  N   -0.411893
     5  C   -0.128427
     9  C    0.556118
    11  O   -0.737109
    12  O   -0.183247
 Electronic spatial extent (au):  <R**2>=           1568.7044
 Charge=             -0.0000 electrons
 Dipole moment (field-independent basis, Debye):
    X=             -0.9715    Y=              0.9968    Z=              0.5402  Tot=              1.4930
 Quadrupole moment (field-independent basis, Debye-Ang):
   XX=            -35.0496   YY=            -35.4889   ZZ=            -34.9182
   XY=             -4.3943   XZ=             -0.0687   YZ=             -0.7264
 Traceless Quadrupole moment (field-independent basis, Debye-Ang):
   XX=              0.1026   YY=             -0.3366   ZZ=              0.2340
   XY=             -4.3943   XZ=             -0.0687   YZ=             -0.7264
 Octapole moment (field-independent basis, Debye-Ang**2):
  XXX=             93.5704  YYY=           -231.0704  ZZZ=              9.4423  XYY=             42.1907
  XXY=            -72.2461  XXZ=             -0.5567  XZZ=             43.1552  YZZ=            -73.7583
  YYZ=              1.7480  XYZ=              3.9585
 Hexadecapole moment (field-independent basis, Debye-Ang**3):
 XXXX=           -506.5209 YYYY=          -1265.4310 ZZZZ=            -69.7655 XXXY=            187.5222
 XXXZ=              4.4688 YYYX=            272.6702 YYYZ=             11.4935 ZZZX=            -19.2205
 ZZZY=             10.3296 XXYY=           -337.1307 XXZZ=           -127.5792 YYZZ=           -216.6919
 XXYZ=            -12.7849 YYXZ=              3.6549 ZZXY=             80.2408
 N-N= 2.484837826582D+02 E-N=-1.254788674204D+03  KE= 3.217699114585D+02
 No NMR shielding tensors so no spin-rotation constants.
 Leave Link  601 at Tue Oct 25 12:20:38 2022, MaxMem=  9830400000 cpu:              12.6 elap:               0.6
 (Enter /opt/software/gaussian/g16.c01/l701.exe)
 ... and contract with generalized density number  0.
 Compute integral first derivatives.
 Leave Link  701 at Tue Oct 25 12:20:39 2022, MaxMem=  9830400000 cpu:               8.7 elap:               0.3
 (Enter /opt/software/gaussian/g16.c01/l702.exe)
 L702 exits ... SP integral derivatives will be done elsewhere.
 Leave Link  702 at Tue Oct 25 12:20:40 2022, MaxMem=  9830400000 cpu:               0.9 elap:               0.1
 (Enter /opt/software/gaussian/g16.c01/l703.exe)
 Integral derivatives from FoFJK, PRISM(SPDF).
 Compute integral first derivatives, UseDBF=F ICtDFT=           0.
 Calling FoFJK, ICntrl=      2127 FMM=F ISym2X=0 I1Cent= 0 IOpClX= 0 NMat=1 NMatS=1 NMatT=0.
 FoFJK:  IHMeth= 1 ICntrl=    2127 DoSepK=F KAlg= 0 I1Cent=           0 FoldK=F
 IRaf=         0 NMat=       1 IRICut=       1 DoRegI=T DoRafI=F ISym2E= 0 IDoP0=0 IntGTp=1.
 FoFCou: FMM=F IPFlag=           0 FMFlag=      100000 FMFlg1=         800
         NFxFlg=           0 DoJE=F BraDBF=F KetDBF=F FulRan=T
         wScrn=  0.000000 ICntrl=      2127 IOpCl=  0 I1Cent=           0 NGrid=           0
         NMat0=    1 NMatS0=      1 NMatT0=    0 NMatD0=    1 NMtDS0=    0 NMtDT0=    0
 Symmetry not used in FoFCou.
 Leave Link  703 at Tue Oct 25 12:21:11 2022, MaxMem=  9830400000 cpu:             847.7 elap:              30.2
 (Enter /opt/software/gaussian/g16.c01/l716.exe)
 Dipole        =-3.82205802D-01 3.92154692D-01 2.12517188D-01
 -------------------------------------------------------------------
 Center     Atomic                   Forces (Hartrees/Bohr)
 Number     Number              X              Y              Z
 -------------------------------------------------------------------
      1        6           0.011968463   -0.012387716   -0.013109915
      2        7          -0.009192354   -0.005866808    0.004707993
      3        1           0.001933995    0.004017900   -0.003551764
      4        1           0.003597760    0.003628554    0.005719117
      5        6          -0.005007869    0.014515627    0.002242207
      6        1           0.001188632   -0.002290890   -0.003161715
      7        1           0.001600889   -0.001294257    0.002856263
      8        1          -0.003394619   -0.005857837   -0.000481211
      9        6          -0.007822243   -0.021642792   -0.000429493
     10        1          -0.001395450    0.000410682   -0.002403805
     11        8           0.009349413    0.022442372    0.006825902
     12        8          -0.007200911   -0.003330016   -0.003991017
     13        1           0.004374293    0.007655180    0.004777440
 -------------------------------------------------------------------
 Cartesian Forces:  Max     0.022442372 RMS     0.007798217
 Leave Link  716 at Tue Oct 25 12:21:11 2022, MaxMem=  9830400000 cpu:               1.1 elap:               0.1
 (Enter /opt/software/gaussian/g16.c01/l103.exe)

 GradGradGradGradGradGradGradGradGradGradGradGradGradGradGradGradGradGrad
 Berny optimization.
 FormGI is forming the generalized inverse of G from B-inverse, IUseBI=4.
 Internal  Forces:  Max     0.024368100 RMS     0.004841078
 Search for a local minimum.
 Step number   1 out of a maximum of   64
 All quantities printed in internal units (Hartrees-Bohrs-Radians)
 RMS Force = .48411D-02 SwitMx=.10000D-02 MixMth= 1
 Mixed Optimization -- RFO/linear search
 Second derivative matrix not updated -- first step.
 ITU=  0
     Eigenvalues ---    0.00325   0.00466   0.00616   0.00794   0.02396
     Eigenvalues ---    0.04587   0.04778   0.05126   0.05464   0.05646
     Eigenvalues ---    0.06373   0.16000   0.16000   0.16000   0.16000
     Eigenvalues ---    0.16000   0.16000   0.17215   0.18259   0.24994
     Eigenvalues ---    0.25000   0.29117   0.30109   0.34133   0.34169
     Eigenvalues ---    0.34173   0.34226   0.34422   0.43664   0.44120
     Eigenvalues ---    0.51309   0.55716   0.93962
 RFO step:  Lambda=-5.34122463D-03 EMin= 3.24892322D-03
 Linear search not attempted -- first point.
 Iteration  1 RMS(Cart)=  0.06027350 RMS(Int)=  0.00220945
 Iteration  2 RMS(Cart)=  0.00274798 RMS(Int)=  0.00063438
 Iteration  3 RMS(Cart)=  0.00000455 RMS(Int)=  0.00063437
 Iteration  4 RMS(Cart)=  0.00000000 RMS(Int)=  0.00063437
 ITry= 1 IFail=0 DXMaxC= 1.91D-01 DCOld= 1.00D+10 DXMaxT= 3.00D-01 DXLimC= 3.00D+00 Rises=F
 Variable       Old X    -DE/DX   Delta X   Delta X   Delta X     New X
                                 (Linear)    (Quad)   (Total)
    R1        2.79925  -0.00568   0.00000  -0.01626  -0.01626   2.78298
    R2        2.87746   0.00330   0.00000   0.01076   0.01076   2.88822
    R3        2.89760  -0.00310   0.00000  -0.01046  -0.01046   2.88714
    R4        2.06950  -0.00236   0.00000  -0.00678  -0.00678   2.06272
    R5        1.93011  -0.00536   0.00000  -0.01201  -0.01201   1.91810
    R6        1.93559  -0.00721   0.00000  -0.01630  -0.01630   1.91929
    R7        2.07106  -0.00348   0.00000  -0.01005  -0.01005   2.06101
    R8        2.07039  -0.00304   0.00000  -0.00875  -0.00875   2.06165
    R9        2.07046  -0.00525   0.00000  -0.01513  -0.01513   2.05534
   R10        2.31159  -0.02437   0.00000  -0.02579  -0.02579   2.28580
   R11        2.54501   0.00494   0.00000   0.00878   0.00878   2.55379
   R12        1.85267  -0.00911   0.00000  -0.01757  -0.01757   1.83510
    A1        1.90479   0.00234   0.00000   0.03477   0.03394   1.93874
    A2        1.92221   0.00477   0.00000   0.04944   0.04890   1.97111
    A3        1.88620  -0.00215   0.00000  -0.01777  -0.01684   1.86936
    A4        1.94547  -0.00334   0.00000  -0.00471  -0.00680   1.93867
    A5        1.91921   0.00015   0.00000  -0.02110  -0.02144   1.89776
    A6        1.88501  -0.00179   0.00000  -0.04194  -0.04203   1.84298
    A7        1.88777   0.00330   0.00000   0.02704   0.02668   1.91446
    A8        1.88444   0.00242   0.00000   0.02172   0.02137   1.90581
    A9        1.80965  -0.00057   0.00000   0.01364   0.01286   1.82251
   A10        1.92842   0.00253   0.00000   0.02327   0.02343   1.95185
   A11        1.95043  -0.00107   0.00000  -0.01125  -0.01164   1.93879
   A12        1.94295  -0.00576   0.00000  -0.03809  -0.03835   1.90460
   A13        1.87574  -0.00008   0.00000   0.00551   0.00553   1.88127
   A14        1.87124   0.00275   0.00000   0.02579   0.02608   1.89732
   A15        1.89194   0.00196   0.00000  -0.00265  -0.00344   1.88850
   A16        2.20079  -0.00518   0.00000  -0.01959  -0.02093   2.17986
   A17        1.98479  -0.00331   0.00000  -0.01216  -0.01356   1.97122
   A18        2.09724   0.00852   0.00000   0.03421   0.03275   2.12999
   A19        1.81729   0.00761   0.00000   0.04604   0.04604   1.86334
    D1        2.88288  -0.00061   0.00000   0.00222   0.00123   2.88411
    D2       -1.45248   0.00147   0.00000   0.04139   0.04083  -1.41164
    D3       -1.25930  -0.00014   0.00000   0.05123   0.05177  -1.20753
    D4        0.68852   0.00194   0.00000   0.09040   0.09138   0.77990
    D5        0.79615  -0.00087   0.00000   0.01809   0.01789   0.81404
    D6        2.74398   0.00121   0.00000   0.05726   0.05750   2.80148
    D7       -2.96423   0.00160   0.00000  -0.01152  -0.01146  -2.97569
    D8        1.23126   0.00070   0.00000  -0.02670  -0.02650   1.20476
    D9       -0.88705   0.00299   0.00000   0.01145   0.01114  -0.87591
   D10        1.19194  -0.00380   0.00000  -0.09421  -0.09399   1.09795
   D11       -0.89575  -0.00470   0.00000  -0.10939  -0.10903  -1.00478
   D12       -3.01406  -0.00241   0.00000  -0.07124  -0.07139  -3.08545
   D13       -0.89805   0.00048   0.00000  -0.02472  -0.02478  -0.92282
   D14       -2.98574  -0.00042   0.00000  -0.03991  -0.03981  -3.02555
   D15        1.17914   0.00187   0.00000  -0.00176  -0.00218   1.17696
   D16        0.18134  -0.00305   0.00000  -0.16388  -0.16372   0.01762
   D17       -2.98951  -0.00169   0.00000  -0.06508  -0.06575  -3.05526
   D18        2.29824   0.00094   0.00000  -0.08927  -0.08904   2.20920
   D19       -0.87261   0.00230   0.00000   0.00954   0.00893  -0.86368
   D20       -1.87485  -0.00209   0.00000  -0.14565  -0.14478  -2.01963
   D21        1.23749  -0.00072   0.00000  -0.04684  -0.04682   1.19067
   D22        3.13551   0.00022   0.00000  -0.02037  -0.02158   3.11393
   D23       -0.03343   0.00126   0.00000   0.07103   0.07224   0.03881
         Item               Value     Threshold  Converged?
 Maximum Force            0.024368     0.000450     NO 
 RMS     Force            0.004841     0.000300     NO 
 Maximum Displacement     0.190641     0.001800     NO 
 RMS     Displacement     0.060911     0.001200     NO 
 Predicted change in Energy=-3.024102D-03
 Lowest energy point so far.  Saving SCF results.
 GradGradGradGradGradGradGradGradGradGradGradGradGradGradGradGradGradGrad

 Leave Link  103 at Tue Oct 25 12:21:13 2022, MaxMem=  9830400000 cpu:              34.8 elap:               1.2
 (Enter /opt/software/gaussian/g16.c01/l202.exe)
                          Input orientation:                          
 ---------------------------------------------------------------------
 Center     Atomic      Atomic             Coordinates (Angstroms)
 Number     Number       Type             X           Y           Z
 ---------------------------------------------------------------------
      1          6           0       -0.599881    2.278907    0.331698
      2          7           0        0.546551    1.418668   -0.006681
      3          1           0        0.530960    0.584833    0.571875
      4          1           0        0.434943    1.071078   -0.954444
      5          6           0       -0.419930    3.684809   -0.240145
      6          1           0       -1.173523    4.376271    0.138631
      7          1           0       -0.491153    3.677801   -1.328773
      8          1           0        0.564515    4.057526    0.033546
      9          6           0       -1.939570    1.680095   -0.093569
     10          1           0       -0.640751    2.345856    1.420420
     11          8           0       -2.077348    0.607253   -0.634998
     12          8           0       -2.981034    2.514402    0.119949
     13          1           0       -3.775619    2.058661   -0.202468
 ---------------------------------------------------------------------
                    Distance matrix (angstroms):
                    1          2          3          4          5
     1  C    0.000000
     2  N    1.472691   0.000000
     3  H    2.050945   1.015012   0.000000
     4  H    2.045452   1.015643   1.604775   0.000000
     5  C    1.528380   2.474668   3.342666   2.841235   0.000000
     6  H    2.182950   3.424497   4.179469   3.834876   1.090639
     7  H    2.173911   2.815749   3.771423   2.791555   1.090978
     8  H    2.146671   2.639225   3.514330   3.148298   1.087638
     9  C    1.527807   2.501338   2.783152   2.598138   2.519855
    10  H    1.091544   2.075085   2.279065   2.902095   2.144536
    11  O    2.431427   2.817450   2.874077   2.574643   3.517712
    12  O    2.402120   3.696015   4.032564   3.860881   2.838799
    13  H    3.227871   4.373680   4.617185   4.389717   3.729132
                    6          7          8          9         10
     6  H    0.000000
     7  H    1.762602   0.000000
     8  H    1.770145   1.764806   0.000000
     9  C    2.812492   2.759433   3.455254   0.000000
    10  H    2.459555   3.058517   2.511155   2.102934   0.000000
    11  O    3.952328   3.524998   4.396678   1.209594   3.051442
    12  O    2.594996   3.106735   3.867766   1.351409   2.682640
    13  H    3.501224   3.831174   4.784133   1.877830   3.541701
                   11         12         13
    11  O    0.000000
    12  O    2.241386   0.000000
    13  H    2.275476   0.971091   0.000000
 Symmetry turned off by external request.
 Stoichiometry    C3H7NO2
 Framework group  C1[X(C3H7NO2)]
 Deg. of freedom    33
 Full point group                 C1      NOp   1
 Rotational constants (GHZ):           4.9760769           3.2631972           2.1656210
 Leave Link  202 at Tue Oct 25 12:21:13 2022, MaxMem=  9830400000 cpu:               0.5 elap:               0.0
 (Enter /opt/software/gaussian/g16.c01/l301.exe)
 Standard basis: Aug-CC-pVTZ (5D, 7F)
 Ernie: Thresh=  0.10000D-02 Tol=  0.10000D-05 Strict=F.
 Ernie:  18 primitive shells out of 257 were deleted.
   437 basis functions,   621 primitive gaussians,   505 cartesian basis functions
    24 alpha electrons       24 beta electrons
       nuclear repulsion energy       248.8123175955 Hartrees.
 IExCor=  402 DFT=T Ex+Corr=B3LYP ExCW=0 ScaHFX=  0.200000
 ScaDFX=  0.800000  0.720000  1.000000  0.810000 ScalE2=  1.000000  1.000000
 IRadAn=      5 IRanWt=     -1 IRanGd=            0 ICorTp=0 IEmpDi=  4
 NAtoms=   13 NActive=   13 NUniq=   13 SFac= 1.00D+00 NAtFMM=   60 NAOKFM=F Big=F
 Integral buffers will be    131072 words long.
 Raffenetti 2 integral format.
 Two-electron integral symmetry is turned off.
 Leave Link  301 at Tue Oct 25 12:21:13 2022, MaxMem=  9830400000 cpu:               3.3 elap:               0.1
 (Enter /opt/software/gaussian/g16.c01/l302.exe)
 NPDir=0 NMtPBC=     1 NCelOv=     1 NCel=       1 NClECP=     1 NCelD=      1
         NCelK=      1 NCelE2=     1 NClLst=     1 CellRange=     0.0.
 One-electron integrals computed using PRISM.
 NBasis=   437 RedAO= T EigKep=  6.87D-06  NBF=   437
 NBsUse=   437 1.00D-06 EigRej= -1.00D+00 NBFU=   437
 Precomputing XC quadrature grid using
 IXCGrd= 4 IRadAn=           5 IRanWt=          -1 IRanGd=           0 AccXCQ= 0.00D+00.
 Generated NRdTot=       0 NPtTot=           0 NUsed=           0 NTot=          32
 NSgBfM=   505   505   505   505   505 MxSgAt=    13 MxSgA2=    13.
 Leave Link  302 at Tue Oct 25 12:21:15 2022, MaxMem=  9830400000 cpu:              51.3 elap:               2.0
 (Enter /opt/software/gaussian/g16.c01/l303.exe)
 DipDrv:  MaxL=1.
 Leave Link  303 at Tue Oct 25 12:21:15 2022, MaxMem=  9830400000 cpu:               4.6 elap:               0.2
 (Enter /opt/software/gaussian/g16.c01/l401.exe)
 Initial guess from the checkpoint file:  "4cyano.chk"
 B after Tr=    -0.005228   -0.001430   -0.078016
         Rot=    0.999966   -0.008039   -0.001778    0.000838 Ang=  -0.95 deg.
 Guess basis will be translated and rotated to current coordinates.
 JPrj=2 DoOrth=T DoCkMO=T.
 Generating alternative initial guess.
 ExpMin= 2.53D-02 ExpMax= 1.53D+04 ExpMxC= 5.22D+02 IAcc=3 IRadAn=         5 AccDes= 0.00D+00
 Harris functional with IExCor=  402 and IRadAn=       5 diagonalized for initial guess.
 HarFok:  IExCor=  402 AccDes= 0.00D+00 IRadAn=         5 IDoV= 1 UseB2=F ITyADJ=14
 ICtDFT=  3500011 ScaDFX=  1.000000  1.000000  1.000000  1.000000
 FoFCou: FMM=F IPFlag=           0 FMFlag=      100000 FMFlg1=           0
         NFxFlg=           0 DoJE=T BraDBF=F KetDBF=T FulRan=T
         wScrn=  0.000000 ICntrl=       500 IOpCl=  0 I1Cent=   200000004 NGrid=           0
         NMat0=    1 NMatS0=      1 NMatT0=    0 NMatD0=    1 NMtDS0=    0 NMtDT0=    0
 Symmetry not used in FoFCou.
 Harris En= -323.926086790135    
 Leave Link  401 at Tue Oct 25 12:21:18 2022, MaxMem=  9830400000 cpu:              79.6 elap:               2.9
 (Enter /opt/software/gaussian/g16.c01/l502.exe)
 Two-electron integral symmetry not used.
 Closed shell SCF:
 Using DIIS extrapolation, IDIIS=  1040.
 NGot=  9830400000 LenX=  9829870397 LenY=  9829614867
 Requested convergence on RMS density matrix=1.00D-08 within 128 cycles.
 Requested convergence on MAX density matrix=1.00D-06.
 Requested convergence on             energy=1.00D-06.
 No special actions if energy rises.
 Fock matrices will be formed incrementally for  20 cycles.

 Cycle   1  Pass 1  IDiag  1:
 FoFJK:  IHMeth= 1 ICntrl=       0 DoSepK=F KAlg= 0 I1Cent=           0 FoldK=F
 IRaf= 990000000 NMat=       1 IRICut=       1 DoRegI=T DoRafI=F ISym2E= 0 IDoP0=0 IntGTp=1.
 FoFCou: FMM=F IPFlag=           0 FMFlag=      100000 FMFlg1=           0
         NFxFlg=           0 DoJE=F BraDBF=F KetDBF=F FulRan=T
         wScrn=  0.000000 ICntrl=         0 IOpCl=  0 I1Cent=           0 NGrid=           0
         NMat0=    1 NMatS0=      1 NMatT0=    0 NMatD0=    1 NMtDS0=    0 NMtDT0=    0
 Symmetry not used in FoFCou.
 E= -323.874334408027    
 DIIS: error= 3.49D-03 at cycle   1 NSaved=   1.
 NSaved= 1 IEnMin= 1 EnMin= -323.874334408027     IErMin= 1 ErrMin= 3.49D-03
 ErrMax= 3.49D-03  0.00D+00 EMaxC= 1.00D-01 BMatC= 1.10D-02 BMatP= 1.10D-02
 IDIUse=3 WtCom= 9.65D-01 WtEn= 3.49D-02
 Coeff-Com:  0.100D+01
 Coeff-En:   0.100D+01
 Coeff:      0.100D+01
 Gap=     0.447 Goal=   None    Shift=    0.000
 GapD=    0.447 DampG=2.000 DampE=1.000 DampFc=2.0000 IDamp=-1.
 RMSDP=4.38D-04 MaxDP=1.38D-02              OVMax= 2.37D-02

 Cycle   2  Pass 1  IDiag  1:
 RMSU=  4.37D-04    CP:  9.98D-01
 E= -323.883019857743     Delta-E=       -0.008685449716 Rises=F Damp=F
 DIIS: error= 5.24D-04 at cycle   2 NSaved=   2.
 NSaved= 2 IEnMin= 2 EnMin= -323.883019857743     IErMin= 2 ErrMin= 5.24D-04
 ErrMax= 5.24D-04  0.00D+00 EMaxC= 1.00D-01 BMatC= 3.65D-04 BMatP= 1.10D-02
 IDIUse=3 WtCom= 9.95D-01 WtEn= 5.24D-03
 Coeff-Com:  0.195D-01 0.980D+00
 Coeff-En:   0.000D+00 0.100D+01
 Coeff:      0.194D-01 0.981D+00
 Gap=     0.245 Goal=   None    Shift=    0.000
 RMSDP=6.82D-05 MaxDP=2.98D-03 DE=-8.69D-03 OVMax= 1.60D-02

 Cycle   3  Pass 1  IDiag  1:
 RMSU=  6.72D-05    CP:  9.97D-01  1.02D+00
 E= -323.882573926855     Delta-E=        0.000445930888 Rises=F Damp=F
 DIIS: error= 1.09D-03 at cycle   3 NSaved=   3.
 NSaved= 3 IEnMin= 2 EnMin= -323.883019857743     IErMin= 2 ErrMin= 5.24D-04
 ErrMax= 1.09D-03  0.00D+00 EMaxC= 1.00D-01 BMatC= 1.06D-03 BMatP= 3.65D-04
 IDIUse=3 WtCom= 2.32D-01 WtEn= 7.68D-01
 Coeff-Com: -0.171D-01 0.649D+00 0.368D+00
 Coeff-En:   0.000D+00 0.693D+00 0.307D+00
 Coeff:     -0.398D-02 0.683D+00 0.321D+00
 Gap=     0.244 Goal=   None    Shift=    0.000
 RMSDP=3.79D-05 MaxDP=2.28D-03 DE= 4.46D-04 OVMax= 1.07D-02

 Cycle   4  Pass 1  IDiag  1:
 RMSU=  1.99D-05    CP:  9.97D-01  1.03D+00  5.24D-01
 E= -323.883320806896     Delta-E=       -0.000746880041 Rises=F Damp=F
 DIIS: error= 1.19D-04 at cycle   4 NSaved=   4.
 NSaved= 4 IEnMin= 4 EnMin= -323.883320806896     IErMin= 4 ErrMin= 1.19D-04
 ErrMax= 1.19D-04  0.00D+00 EMaxC= 1.00D-01 BMatC= 1.63D-05 BMatP= 3.65D-04
 IDIUse=3 WtCom= 9.99D-01 WtEn= 1.19D-03
 Coeff-Com: -0.104D-01 0.245D+00 0.127D+00 0.639D+00
 Coeff-En:   0.000D+00 0.000D+00 0.000D+00 0.100D+01
 Coeff:     -0.104D-01 0.245D+00 0.127D+00 0.639D+00
 Gap=     0.244 Goal=   None    Shift=    0.000
 RMSDP=7.45D-06 MaxDP=4.16D-04 DE=-7.47D-04 OVMax= 1.13D-03

 Cycle   5  Pass 1  IDiag  1:
 RMSU=  6.73D-06    CP:  9.97D-01  1.03D+00  5.02D-01  8.74D-01
 E= -323.883332170635     Delta-E=       -0.000011363738 Rises=F Damp=F
 DIIS: error= 6.09D-05 at cycle   5 NSaved=   5.
 NSaved= 5 IEnMin= 5 EnMin= -323.883332170635     IErMin= 5 ErrMin= 6.09D-05
 ErrMax= 6.09D-05  0.00D+00 EMaxC= 1.00D-01 BMatC= 3.51D-06 BMatP= 1.63D-05
 IDIUse=1 WtCom= 1.00D+00 WtEn= 0.00D+00
 Coeff-Com: -0.349D-02 0.594D-01 0.287D-01 0.335D+00 0.580D+00
 Coeff:     -0.349D-02 0.594D-01 0.287D-01 0.335D+00 0.580D+00
 Gap=     0.244 Goal=   None    Shift=    0.000
 RMSDP=2.75D-06 MaxDP=1.69D-04 DE=-1.14D-05 OVMax= 5.72D-04

 Cycle   6  Pass 1  IDiag  1:
 RMSU=  2.22D-06    CP:  9.97D-01  1.03D+00  5.09D-01  9.13D-01  8.01D-01
 E= -323.883334618003     Delta-E=       -0.000002447368 Rises=F Damp=F
 DIIS: error= 2.50D-05 at cycle   6 NSaved=   6.
 NSaved= 6 IEnMin= 6 EnMin= -323.883334618003     IErMin= 6 ErrMin= 2.50D-05
 ErrMax= 2.50D-05  0.00D+00 EMaxC= 1.00D-01 BMatC= 4.16D-07 BMatP= 3.51D-06
 IDIUse=1 WtCom= 1.00D+00 WtEn= 0.00D+00
 Coeff-Com: -0.367D-03-0.400D-02-0.312D-02 0.915D-01 0.307D+00 0.609D+00
 Coeff:     -0.367D-03-0.400D-02-0.312D-02 0.915D-01 0.307D+00 0.609D+00
 Gap=     0.244 Goal=   None    Shift=    0.000
 RMSDP=1.07D-06 MaxDP=4.86D-05 DE=-2.45D-06 OVMax= 1.40D-04

 Cycle   7  Pass 1  IDiag  1:
 RMSU=  8.00D-07    CP:  9.97D-01  1.03D+00  5.13D-01  9.30D-01  8.27D-01
                    CP:  7.57D-01
 E= -323.883334888411     Delta-E=       -0.000000270408 Rises=F Damp=F
 DIIS: error= 7.06D-06 at cycle   7 NSaved=   7.
 NSaved= 7 IEnMin= 7 EnMin= -323.883334888411     IErMin= 7 ErrMin= 7.06D-06
 ErrMax= 7.06D-06  0.00D+00 EMaxC= 1.00D-01 BMatC= 3.32D-08 BMatP= 4.16D-07
 IDIUse=1 WtCom= 1.00D+00 WtEn= 0.00D+00
 Coeff-Com:  0.111D-03-0.746D-02-0.454D-02 0.177D-01 0.106D+00 0.306D+00
 Coeff-Com:  0.582D+00
 Coeff:      0.111D-03-0.746D-02-0.454D-02 0.177D-01 0.106D+00 0.306D+00
 Coeff:      0.582D+00
 Gap=     0.244 Goal=   None    Shift=    0.000
 RMSDP=3.17D-07 MaxDP=1.40D-05 DE=-2.70D-07 OVMax= 3.81D-05

 Cycle   8  Pass 1  IDiag  1:
 RMSU=  2.07D-07    CP:  9.97D-01  1.03D+00  5.13D-01  9.34D-01  8.37D-01
                    CP:  7.74D-01  7.34D-01
 E= -323.883334914404     Delta-E=       -0.000000025993 Rises=F Damp=F
 DIIS: error= 9.09D-07 at cycle   8 NSaved=   8.
 NSaved= 8 IEnMin= 8 EnMin= -323.883334914404     IErMin= 8 ErrMin= 9.09D-07
 ErrMax= 9.09D-07  0.00D+00 EMaxC= 1.00D-01 BMatC= 6.62D-10 BMatP= 3.32D-08
 IDIUse=1 WtCom= 1.00D+00 WtEn= 0.00D+00
 Coeff-Com:  0.528D-04-0.196D-02-0.137D-02-0.382D-03 0.107D-01 0.478D-01
 Coeff-Com:  0.153D+00 0.792D+00
 Coeff:      0.528D-04-0.196D-02-0.137D-02-0.382D-03 0.107D-01 0.478D-01
 Coeff:      0.153D+00 0.792D+00
 Gap=     0.244 Goal=   None    Shift=    0.000
 RMSDP=6.26D-08 MaxDP=2.48D-06 DE=-2.60D-08 OVMax= 1.05D-05

 Cycle   9  Pass 1  IDiag  1:
 RMSU=  5.48D-08    CP:  9.97D-01  1.03D+00  5.13D-01  9.35D-01  8.39D-01
                    CP:  7.78D-01  7.55D-01  9.94D-01
 E= -323.883334915040     Delta-E=       -0.000000000636 Rises=F Damp=F
 DIIS: error= 3.41D-07 at cycle   9 NSaved=   9.
 NSaved= 9 IEnMin= 9 EnMin= -323.883334915040     IErMin= 9 ErrMin= 3.41D-07
 ErrMax= 3.41D-07  0.00D+00 EMaxC= 1.00D-01 BMatC= 7.82D-11 BMatP= 6.62D-10
 IDIUse=1 WtCom= 1.00D+00 WtEn= 0.00D+00
 Coeff-Com:  0.106D-04-0.808D-04-0.115D-03-0.158D-02-0.508D-02-0.830D-02
 Coeff-Com:  0.629D-02 0.294D+00 0.715D+00
 Coeff:      0.106D-04-0.808D-04-0.115D-03-0.158D-02-0.508D-02-0.830D-02
 Coeff:      0.629D-02 0.294D+00 0.715D+00
 Gap=     0.244 Goal=   None    Shift=    0.000
 RMSDP=2.21D-08 MaxDP=9.73D-07 DE=-6.36D-10 OVMax= 2.95D-06

 Cycle  10  Pass 1  IDiag  1:
 RMSU=  1.42D-08    CP:  9.97D-01  1.03D+00  5.13D-01  9.35D-01  8.39D-01
                    CP:  7.80D-01  7.66D-01  1.03D+00  8.22D-01
 E= -323.883334915117     Delta-E=       -0.000000000077 Rises=F Damp=F
 DIIS: error= 1.05D-07 at cycle  10 NSaved=  10.
 NSaved=10 IEnMin=10 EnMin= -323.883334915117     IErMin=10 ErrMin= 1.05D-07
 ErrMax= 1.05D-07  0.00D+00 EMaxC= 1.00D-01 BMatC= 7.45D-12 BMatP= 7.82D-11
 IDIUse=1 WtCom= 1.00D+00 WtEn= 0.00D+00
 Coeff-Com:  0.110D-06 0.137D-03 0.737D-04-0.597D-03-0.290D-02-0.705D-02
 Coeff-Com: -0.817D-02 0.686D-01 0.293D+00 0.657D+00
 Coeff:      0.110D-06 0.137D-03 0.737D-04-0.597D-03-0.290D-02-0.705D-02
 Coeff:     -0.817D-02 0.686D-01 0.293D+00 0.657D+00
 Gap=     0.244 Goal=   None    Shift=    0.000
 RMSDP=5.75D-09 MaxDP=3.24D-07 DE=-7.69D-11 OVMax= 8.52D-07

 SCF Done:  E(RB3LYP) =  -323.883334915     A.U. after   10 cycles
            NFock= 10  Conv=0.58D-08     -V/T= 2.0063
 KE= 3.218688843675D+02 PE=-1.255547136139D+03 EE= 3.609825992609D+02
 Leave Link  502 at Tue Oct 25 12:22:13 2022, MaxMem=  9830400000 cpu:            1607.5 elap:              55.1
 (Enter /opt/software/gaussian/g16.c01/l701.exe)
 ... and contract with generalized density number  0.
 Compute integral first derivatives.
 Leave Link  701 at Tue Oct 25 12:22:14 2022, MaxMem=  9830400000 cpu:              15.1 elap:               0.6
 (Enter /opt/software/gaussian/g16.c01/l702.exe)
 L702 exits ... SP integral derivatives will be done elsewhere.
 Leave Link  702 at Tue Oct 25 12:22:14 2022, MaxMem=  9830400000 cpu:               1.1 elap:               0.1
 (Enter /opt/software/gaussian/g16.c01/l703.exe)
 Integral derivatives from FoFJK, PRISM(SPDF).
 Compute integral first derivatives, UseDBF=F ICtDFT=           0.
 Calling FoFJK, ICntrl=      2127 FMM=F ISym2X=0 I1Cent= 0 IOpClX= 0 NMat=1 NMatS=1 NMatT=0.
 FoFJK:  IHMeth= 1 ICntrl=    2127 DoSepK=F KAlg= 0 I1Cent=           0 FoldK=F
 IRaf=         0 NMat=       1 IRICut=       1 DoRegI=T DoRafI=F ISym2E= 0 IDoP0=0 IntGTp=1.
 FoFCou: FMM=F IPFlag=           0 FMFlag=      100000 FMFlg1=         800
         NFxFlg=           0 DoJE=F BraDBF=F KetDBF=F FulRan=T
         wScrn=  0.000000 ICntrl=      2127 IOpCl=  0 I1Cent=           0 NGrid=           0
         NMat0=    1 NMatS0=      1 NMatT0=    0 NMatD0=    1 NMtDS0=    0 NMtDT0=    0
 Symmetry not used in FoFCou.
 Leave Link  703 at Tue Oct 25 12:22:47 2022, MaxMem=  9830400000 cpu:             882.7 elap:              33.4
 (Enter /opt/software/gaussian/g16.c01/l716.exe)
 Dipole        =-3.83526106D-01 3.56344537D-01 2.31825992D-01
 -------------------------------------------------------------------
 Center     Atomic                   Forces (Hartrees/Bohr)
 Number     Number              X              Y              Z
 -------------------------------------------------------------------
      1        6           0.004844252   -0.006885020    0.001923005
      2        7          -0.008288276    0.001557145    0.001460747
      3        1           0.000104130    0.001515507    0.000000032
      4        1           0.001180054    0.001685481   -0.000300689
      5        6          -0.000394782    0.003857465   -0.000318794
      6        1           0.000358489   -0.002032857   -0.000511496
      7        1           0.000706146   -0.000515993   -0.000436356
      8        1           0.000431349   -0.000623942    0.000089908
      9        6           0.001398246   -0.004578143   -0.012804990
     10        1           0.000810509    0.001948067    0.001411450
     11        8          -0.000026863    0.004514393    0.005427888
     12        8          -0.002466490   -0.001581821    0.003081763
     13        1           0.001343234    0.001139718    0.000977532
 -------------------------------------------------------------------
 Cartesian Forces:  Max     0.012804990 RMS     0.003362551
 Leave Link  716 at Tue Oct 25 12:22:47 2022, MaxMem=  9830400000 cpu:               0.6 elap:               0.0
 (Enter /opt/software/gaussian/g16.c01/l103.exe)

 GradGradGradGradGradGradGradGradGradGradGradGradGradGradGradGradGradGrad
 Berny optimization.
 Using GEDIIS/GDIIS optimizer.
 FormGI is forming the generalized inverse of G from B-inverse, IUseBI=4.
 Internal  Forces:  Max     0.008498149 RMS     0.001819878
 Search for a local minimum.
 Step number   2 out of a maximum of   64
 All quantities printed in internal units (Hartrees-Bohrs-Radians)
 RMS Force = .18199D-02 SwitMx=.10000D-02 MixMth= 1
 Mixed Optimization -- RFO/linear search
 Update second derivatives using D2CorX and points    1    2
 DE= -2.76D-03 DEPred=-3.02D-03 R= 9.12D-01
 TightC=F SS=  1.41D+00  RLast= 3.60D-01 DXNew= 5.0454D-01 1.0809D+00
 Trust test= 9.12D-01 RLast= 3.60D-01 DXMaxT set to 5.05D-01
 ITU=  1  0
 Use linear search instead of GDIIS.
     Eigenvalues ---    0.00299   0.00456   0.00598   0.01113   0.02396
     Eigenvalues ---    0.04292   0.04657   0.05462   0.05534   0.05706
     Eigenvalues ---    0.06387   0.15014   0.16000   0.16000   0.16000
     Eigenvalues ---    0.16000   0.16288   0.17692   0.19113   0.24146
     Eigenvalues ---    0.25288   0.29136   0.29927   0.32841   0.34149
     Eigenvalues ---    0.34172   0.34221   0.35609   0.43554   0.43985
     Eigenvalues ---    0.50655   0.55517   0.88221
 RFO step:  Lambda=-3.53347434D-03 EMin= 2.98731015D-03
 Quartic linear search produced a step of  0.03049.
 Iteration  1 RMS(Cart)=  0.09324136 RMS(Int)=  0.01659350
 Iteration  2 RMS(Cart)=  0.02489526 RMS(Int)=  0.00276137
 Iteration  3 RMS(Cart)=  0.00068809 RMS(Int)=  0.00272774
 Iteration  4 RMS(Cart)=  0.00000120 RMS(Int)=  0.00272774
 Iteration  5 RMS(Cart)=  0.00000001 RMS(Int)=  0.00272774
 ITry= 1 IFail=0 DXMaxC= 4.18D-01 DCOld= 1.00D+10 DXMaxT= 5.05D-01 DXLimC= 3.00D+00 Rises=F
 Variable       Old X    -DE/DX   Delta X   Delta X   Delta X     New X
                                 (Linear)    (Quad)   (Total)
    R1        2.78298  -0.00850  -0.00050  -0.03448  -0.03498   2.74800
    R2        2.88822   0.00120   0.00033   0.01073   0.01106   2.89928
    R3        2.88714   0.00090  -0.00032  -0.00362  -0.00393   2.88320
    R4        2.06272   0.00150  -0.00021  -0.00004  -0.00025   2.06247
    R5        1.91810  -0.00125  -0.00037  -0.01043  -0.01080   1.90730
    R6        1.91929  -0.00043  -0.00050  -0.01135  -0.01185   1.90744
    R7        2.06101  -0.00171  -0.00031  -0.01130  -0.01161   2.04940
    R8        2.06165   0.00039  -0.00027  -0.00444  -0.00471   2.05694
    R9        2.05534   0.00020  -0.00046  -0.00906  -0.00952   2.04582
   R10        2.28580  -0.00643  -0.00079  -0.02325  -0.02403   2.26177
   R11        2.55379   0.00123   0.00027   0.00778   0.00805   2.56184
   R12        1.83510  -0.00196  -0.00054  -0.01496  -0.01550   1.81960
    A1        1.93874  -0.00081   0.00103   0.01244   0.01321   1.95194
    A2        1.97111  -0.00034   0.00149   0.02639   0.02774   1.99886
    A3        1.86936   0.00052  -0.00051  -0.00585  -0.00610   1.86326
    A4        1.93867   0.00078  -0.00021  -0.00325  -0.00407   1.93460
    A5        1.89776  -0.00048  -0.00065  -0.01748  -0.01824   1.87952
    A6        1.84298   0.00037  -0.00128  -0.01575  -0.01712   1.82586
    A7        1.91446  -0.00039   0.00081   0.01875   0.01915   1.93361
    A8        1.90581   0.00069   0.00065   0.02196   0.02220   1.92801
    A9        1.82251   0.00087   0.00039   0.02284   0.02240   1.84491
   A10        1.95185  -0.00119   0.00071   0.00822   0.00901   1.96085
   A11        1.93879  -0.00027  -0.00035  -0.00984  -0.01041   1.92839
   A12        1.90460  -0.00063  -0.00117  -0.02801  -0.02936   1.87524
   A13        1.88127   0.00081   0.00017   0.00831   0.00851   1.88978
   A14        1.89732   0.00116   0.00080   0.02484   0.02575   1.92307
   A15        1.88850   0.00020  -0.00010  -0.00260  -0.00320   1.88530
   A16        2.17986   0.00145  -0.00064  -0.00235  -0.01399   2.16588
   A17        1.97122  -0.00164  -0.00041  -0.00925  -0.02093   1.95029
   A18        2.12999   0.00042   0.00100   0.02858   0.01787   2.14786
   A19        1.86334   0.00074   0.00140   0.03345   0.03486   1.89819
    D1        2.88411  -0.00050   0.00004   0.01770   0.01730   2.90140
    D2       -1.41164   0.00070   0.00125   0.06699   0.06825  -1.34340
    D3       -1.20753  -0.00037   0.00158   0.04375   0.04532  -1.16221
    D4        0.77990   0.00083   0.00279   0.09304   0.09627   0.87617
    D5        0.81404   0.00022   0.00055   0.03541   0.03573   0.84977
    D6        2.80148   0.00142   0.00175   0.08470   0.08668   2.88816
    D7       -2.97569  -0.00044  -0.00035  -0.02927  -0.02962  -3.00531
    D8        1.20476  -0.00047  -0.00081  -0.03869  -0.03937   1.16539
    D9       -0.87591  -0.00016   0.00034  -0.01165  -0.01150  -0.88741
   D10        1.09795   0.00004  -0.00287  -0.07108  -0.07385   1.02411
   D11       -1.00478   0.00000  -0.00332  -0.08050  -0.08360  -1.08838
   D12       -3.08545   0.00032  -0.00218  -0.05346  -0.05573  -3.14118
   D13       -0.92282  -0.00056  -0.00076  -0.03984  -0.04064  -0.96346
   D14       -3.02555  -0.00060  -0.00121  -0.04926  -0.05039  -3.07594
   D15        1.17696  -0.00028  -0.00007  -0.02222  -0.02252   1.15444
   D16        0.01762   0.00172  -0.00499   0.00187  -0.00443   0.01319
   D17       -3.05526  -0.00213  -0.00200  -0.27630  -0.27716   2.95076
   D18        2.20920   0.00099  -0.00271   0.03638   0.03242   2.24162
   D19       -0.86368  -0.00286   0.00027  -0.24179  -0.24032  -1.10400
   D20       -2.01963   0.00104  -0.00441   0.00473  -0.00080  -2.02043
   D21        1.19067  -0.00281  -0.00143  -0.27344  -0.27353   0.91714
   D22        3.11393   0.00210  -0.00066   0.15584   0.15673  -3.01253
   D23        0.03881  -0.00167   0.00220  -0.11197  -0.11131  -0.07250
         Item               Value     Threshold  Converged?
 Maximum Force            0.008498     0.000450     NO 
 RMS     Force            0.001820     0.000300     NO 
 Maximum Displacement     0.417781     0.001800     NO 
 RMS     Displacement     0.110742     0.001200     NO 
 Predicted change in Energy=-2.288999D-03
 Lowest energy point so far.  Saving SCF results.
 GradGradGradGradGradGradGradGradGradGradGradGradGradGradGradGradGradGrad

 Leave Link  103 at Tue Oct 25 12:22:49 2022, MaxMem=  9830400000 cpu:              46.9 elap:               1.9
 (Enter /opt/software/gaussian/g16.c01/l202.exe)
                          Input orientation:                          
 ---------------------------------------------------------------------
 Center     Atomic      Atomic             Coordinates (Angstroms)
 Number     Number       Type             X           Y           Z
 ---------------------------------------------------------------------
      1          6           0       -0.619495    2.281501    0.277239
      2          7           0        0.524348    1.416928    0.034800
      3          1           0        0.459066    0.573641    0.585518
      4          1           0        0.540040    1.114020   -0.927922
      5          6           0       -0.391632    3.696442   -0.270385
      6          1           0       -1.177897    4.383558    0.022516
      7          1           0       -0.339764    3.680446   -1.357518
      8          1           0        0.563766    4.039929    0.105456
      9          6           0       -1.952302    1.719564   -0.208238
     10          1           0       -0.731403    2.359053    1.360127
     11          8           0       -2.078397    0.652557   -0.735596
     12          8           0       -3.000717    2.446393    0.250434
     13          1           0       -3.817453    1.992128    0.018612
 ---------------------------------------------------------------------
                    Distance matrix (angstroms):
                    1          2          3          4          5
     1  C    0.000000
     2  N    1.454180   0.000000
     3  H    2.043310   1.009299   0.000000
     4  H    2.039595   1.009373   1.609058   0.000000
     5  C    1.534233   2.475548   3.347856   2.822989   0.000000
     6  H    2.189826   3.420333   4.184744   3.813727   1.084496
     7  H    2.169729   2.794414   3.750434   2.746844   1.088487
     8  H    2.126425   2.624249   3.500939   3.103124   1.082601
     9  C    1.525725   2.506881   2.785298   2.663907   2.519444
    10  H    1.091414   2.054508   2.281432   2.898593   2.136030
    11  O    2.409915   2.819939   2.861868   2.665737   3.510959
    12  O    2.387075   3.678638   3.948364   3.962411   2.939592
    13  H    3.221423   4.379767   4.541157   4.544750   3.837246
                    6          7          8          9         10
     6  H    0.000000
     7  H    1.761058   0.000000
     8  H    1.777174   1.756670   0.000000
     9  C    2.783848   2.786786   3.437018   0.000000
    10  H    2.467221   3.047139   2.465159   2.087896   0.000000
    11  O    3.912289   3.546512   4.377521   1.196876   3.019698
    12  O    2.669687   3.345006   3.907162   1.355667   2.527614
    13  H    3.561771   4.103471   4.836953   1.898563   3.384967
                   11         12         13
    11  O    0.000000
    12  O    2.245168   0.000000
    13  H    2.321120   0.962890   0.000000
 Symmetry turned off by external request.
 Stoichiometry    C3H7NO2
 Framework group  C1[X(C3H7NO2)]
 Deg. of freedom    33
 Full point group                 C1      NOp   1
 Rotational constants (GHZ):           5.0106994           3.1835199           2.1796324
 Leave Link  202 at Tue Oct 25 12:22:49 2022, MaxMem=  9830400000 cpu:               1.1 elap:               0.1
 (Enter /opt/software/gaussian/g16.c01/l301.exe)
 Standard basis: Aug-CC-pVTZ (5D, 7F)
 Ernie: Thresh=  0.10000D-02 Tol=  0.10000D-05 Strict=F.
 Ernie:  18 primitive shells out of 257 were deleted.
   437 basis functions,   621 primitive gaussians,   505 cartesian basis functions
    24 alpha electrons       24 beta electrons
       nuclear repulsion energy       248.9949612325 Hartrees.
 IExCor=  402 DFT=T Ex+Corr=B3LYP ExCW=0 ScaHFX=  0.200000
 ScaDFX=  0.800000  0.720000  1.000000  0.810000 ScalE2=  1.000000  1.000000
 IRadAn=      5 IRanWt=     -1 IRanGd=            0 ICorTp=0 IEmpDi=  4
 NAtoms=   13 NActive=   13 NUniq=   13 SFac= 1.00D+00 NAtFMM=   60 NAOKFM=F Big=F
 Integral buffers will be    131072 words long.
 Raffenetti 2 integral format.
 Two-electron integral symmetry is turned off.
 Leave Link  301 at Tue Oct 25 12:22:49 2022, MaxMem=  9830400000 cpu:               3.1 elap:               0.2
 (Enter /opt/software/gaussian/g16.c01/l302.exe)
 NPDir=0 NMtPBC=     1 NCelOv=     1 NCel=       1 NClECP=     1 NCelD=      1
         NCelK=      1 NCelE2=     1 NClLst=     1 CellRange=     0.0.
 One-electron integrals computed using PRISM.
 NBasis=   437 RedAO= T EigKep=  6.22D-06  NBF=   437
 NBsUse=   437 1.00D-06 EigRej= -1.00D+00 NBFU=   437
 Precomputing XC quadrature grid using
 IXCGrd= 4 IRadAn=           5 IRanWt=          -1 IRanGd=           0 AccXCQ= 0.00D+00.
 Generated NRdTot=       0 NPtTot=           0 NUsed=           0 NTot=          32
 NSgBfM=   505   505   505   505   505 MxSgAt=    13 MxSgA2=    13.
 Leave Link  302 at Tue Oct 25 12:22:51 2022, MaxMem=  9830400000 cpu:              39.5 elap:               1.5
 (Enter /opt/software/gaussian/g16.c01/l303.exe)
 DipDrv:  MaxL=1.
 Leave Link  303 at Tue Oct 25 12:22:51 2022, MaxMem=  9830400000 cpu:               3.3 elap:               0.2
 (Enter /opt/software/gaussian/g16.c01/l401.exe)
 Initial guess from the checkpoint file:  "4cyano.chk"
 B after Tr=    -0.002823    0.005819   -0.129210
         Rot=    0.999922   -0.012057   -0.003029   -0.001051 Ang=  -1.43 deg.
 Guess basis will be translated and rotated to current coordinates.
 JPrj=2 DoOrth=T DoCkMO=T.
 Generating alternative initial guess.
 ExpMin= 2.53D-02 ExpMax= 1.53D+04 ExpMxC= 5.22D+02 IAcc=3 IRadAn=         5 AccDes= 0.00D+00
 Harris functional with IExCor=  402 and IRadAn=       5 diagonalized for initial guess.
 HarFok:  IExCor=  402 AccDes= 0.00D+00 IRadAn=         5 IDoV= 1 UseB2=F ITyADJ=14
 ICtDFT=  3500011 ScaDFX=  1.000000  1.000000  1.000000  1.000000
 FoFCou: FMM=F IPFlag=           0 FMFlag=      100000 FMFlg1=           0
         NFxFlg=           0 DoJE=T BraDBF=F KetDBF=T FulRan=T
         wScrn=  0.000000 ICntrl=       500 IOpCl=  0 I1Cent=   200000004 NGrid=           0
         NMat0=    1 NMatS0=      1 NMatT0=    0 NMatD0=    1 NMtDS0=    0 NMtDT0=    0
 Symmetry not used in FoFCou.
 Harris En= -323.928132531658    
 Leave Link  401 at Tue Oct 25 12:22:53 2022, MaxMem=  9830400000 cpu:              51.8 elap:               1.7
[...]
      1  -0.730759D+01  0.320150D+01  0.402159D+00 -0.743398D+00 -0.123937D+01
      2   0.135430D+02 -0.564362D+01  0.112419D+01  0.136858D+01  0.317472D+01
      3  -0.623539D+01  0.244213D+01 -0.152635D+01 -0.625184D+00 -0.193535D+01
      4  -0.695201D+01 -0.103207D+01  0.628619D+00  0.536072D+01  0.244095D+00
      5  -0.137129D+02 -0.144816D+01  0.817533D+00  0.655089D+01  0.271454D+00
      6   0.579476D+00  0.586806D+01 -0.826879D+00 -0.175262D+01 -0.103967D+01
                86            87            88            89            90 
      1  -0.939945D+01 -0.476701D+01 -0.139691D+01 -0.649429D+01 -0.204982D+02
      2   0.799399D+01  0.600674D+01  0.724439D-01  0.753079D+01 -0.117795D+02
      3   0.140546D+01 -0.123973D+01  0.132447D+01 -0.103650D+01  0.322777D+02
      4   0.312903D+00 -0.207027D+01  0.446168D+01 -0.229405D+01 -0.261679D+01
      5  -0.207349D+01 -0.139458D+01  0.412459D+01 -0.110733D+01 -0.128137D+02
      6   0.544368D+01  0.111720D+02 -0.435847D+00  0.784421D+01  0.427239D+02
                91            92            93            94            95 
      1   0.798755D+01  0.675934D+01  0.571529D+01  0.135847D+02  0.762401D+01
      2  -0.973463D+01 -0.410017D+01 -0.786789D+01 -0.963672D+01 -0.185736D+02
      3   0.174708D+01 -0.265917D+01  0.215260D+01 -0.394801D+01  0.109496D+02
      4   0.814515D+01  0.775498D+01  0.121195D+01  0.626677D+01  0.310897D+02
      5   0.734513D+01  0.635524D+01  0.116693D+02  0.700028D+01  0.166292D+02
      6  -0.159332D+01 -0.761777D+00  0.162865D+01 -0.197397D+00  0.396923D+01
                96            97            98            99           100 
      1   0.658379D+00  0.145025D+02  0.344820D+01 -0.386348D+01 -0.449385D+02
      2  -0.153741D+02 -0.136381D+02 -0.156467D+02 -0.260360D+02  0.330044D+02
      3   0.147157D+02 -0.864454D+00  0.121985D+02  0.298995D+02  0.119341D+02
      4   0.120559D+02 -0.239206D+01  0.117453D+02  0.116114D+02  0.189505D+01
      5   0.143341D+02  0.150468D+02  0.174055D+02  0.320004D+02 -0.232484D+02
      6   0.485258D+01 -0.354196D+00  0.297444D+01 -0.758671D+01  0.128214D+02
               101           102           103           104           105 
      1  -0.185773D+02 -0.183251D+02 -0.290574D+02 -0.306366D+01 -0.294195D+01
      2   0.560741D+01  0.129418D+02  0.109357D+02  0.166580D+02  0.334859D+01
      3   0.129699D+02  0.538331D+01  0.181217D+02 -0.135944D+02 -0.406638D+00
      4   0.214183D+02  0.109963D+02  0.321865D+02 -0.218595D+02 -0.755283D+01
      5  -0.146093D+00  0.120091D+02  0.403033D+01 -0.518151D+01 -0.688249D+01
      6  -0.977361D+00 -0.134567D+01 -0.207414D+01  0.470232D+01  0.837201D+01
               106           107           108           109           110 
      1  -0.318532D+02 -0.451895D+01  0.435656D+01  0.933693D+02  0.871181D+01
      2   0.173272D+02  0.713468D+01 -0.628451D+01 -0.503701D+02 -0.910132D+01
      3   0.145260D+02 -0.261573D+01  0.192795D+01 -0.429992D+02  0.389517D+00
      4   0.207198D+02 -0.770873D+01 -0.114639D+02 -0.415922D+02  0.726961D+01
      5   0.184829D+02 -0.522303D+01 -0.202794D+02  0.281711D+01  0.139510D+01
      6  -0.705435D+01  0.799018D+01  0.115690D+02 -0.378308D+01 -0.142468D+01
               111           112           113           114           115 
      1   0.425386D+01  0.303504D+02  0.112754D+02  0.137757D+01  0.279441D+02
      2  -0.293999D+01 -0.203933D+02 -0.611760D+01 -0.446363D+00 -0.162366D+02
      3  -0.131387D+01 -0.995708D+01 -0.515784D+01 -0.931204D+00 -0.117074D+02
      4  -0.507807D-01 -0.856845D+00 -0.146417D+01  0.174262D+00 -0.117163D+02
      5   0.932615D+01  0.132942D+01  0.607844D+00  0.217722D+01  0.124406D+02
      6  -0.513727D+01 -0.155686D+01 -0.768906D+00 -0.261469D+00 -0.577819D+01
               116           117 
      1   0.311937D+01  0.100247D+02
      2  -0.286092D+01 -0.698521D+01
      3  -0.258447D+00 -0.303949D+01
      4   0.114357D+01 -0.428794D+01
      5   0.120796D+01  0.346403D+01
      6   0.152015D+00 -0.164642D+01

 ----------------------------------------------------------------------

 Electric dipole moment (input orientation):
 (Debye = 10**-18 statcoulomb cm , SI units = C m)
                  (au)            (Debye)         (10**-30 SI)
   Tot        0.513965D+00      0.130637D+01      0.435758D+01
   x         -0.327844D+00     -0.833296D+00     -0.277958D+01
   y          0.290069D+00      0.737281D+00      0.245931D+01
   z          0.269330D+00      0.684568D+00      0.228347D+01

 Dipole polarizability, Alpha (input orientation).
 (esu units = cm**3 , SI units = C**2 m**2 J**-1)
 Alpha(-w;w) w=  532.0nm:
                  (au)         (10**-24 esu)      (10**-40 SI)
   iso        0.576213D+02      0.853859D+01      0.950047D+01
   aniso      0.138288D+02      0.204922D+01      0.228007D+01
   xx         0.642437D+02      0.951994D+01      0.105924D+02
   yx         0.704532D+00      0.104401D+00      0.116162D+00
   yy         0.581779D+02      0.862107D+01      0.959224D+01
   zx        -0.347114D+00     -0.514371D-01     -0.572314D-01
   zy         0.390853D+01      0.579184D+00      0.644429D+00
   zz         0.504423D+02      0.747477D+01      0.831681D+01

 ----------------------------------------------------------------------

 Dipole orientation:
     6          0.57181836          2.78214065          3.52352079
     7          1.44489756          2.23682907          0.97850204
     1          1.46496843          0.35118770          0.65228839
     1          0.24206141          2.99239397         -0.30745749
     6          0.74161879          5.62690694          4.05456061
     1          0.15982209          6.06570124          5.97834459
     1         -0.46642357          6.67496395          2.75196443
     1          2.68203206          6.24870128          3.77646010
     6         -2.12450003          1.88160473          4.03768737
     1          1.80036535          1.79755257          4.85647492
     8         -3.69267000          1.42663053          2.45286986
     8         -2.59906229          1.67173316          6.54568017
     1         -4.34574239          1.15413541          6.72878392

 Electric dipole moment (dipole orientation):
 (Debye = 10**-18 statcoulomb cm , SI units = C m)
                  (au)            (Debye)         (10**-30 SI)
   Tot        0.513965D+00      0.130637D+01      0.435758D+01
   x          0.000000D+00      0.000000D+00      0.000000D+00
   y          0.000000D+00      0.000000D+00      0.000000D+00
   z          0.513965D+00      0.130637D+01      0.435758D+01

 Dipole polarizability, Alpha (dipole orientation).
 (esu units = cm**3 , SI units = C**2 m**2 J**-1)
 Alpha(-w;w) w=  532.0nm:
                  (au)         (10**-24 esu)      (10**-40 SI)
   iso        0.576213D+02      0.853859D+01      0.950047D+01
   aniso      0.138288D+02      0.204922D+01      0.228007D+01
   xx         0.593869D+02      0.880023D+01      0.979158D+01
   yx         0.582524D+01      0.863212D+00      0.960453D+00
   yy         0.529185D+02      0.784172D+01      0.872509D+01
   zx        -0.333785D+01     -0.494618D+00     -0.550337D+00
   zy         0.131948D+01      0.195526D+00      0.217553D+00
   zz         0.605584D+02      0.897383D+01      0.998473D+01

 ----------------------------------------------------------------------
 Unable to Open any file for archive entry.
 1\1\GINC-CDR1870\Freq\RB3LYP\Aug-CC-pVTZ\C3H7N1O2\PETERY\25-Oct-2022\0
 \\# CPHF=RdFreq B3LYP aug-cc-PVTZ Freq(ROA,printderivatives) Geom=Chec
 k Guess=Read polar(ROA,Raman) NoSymmetry int=superfine\\4cyano\\0,1\C,
 -0.6197797267,2.2883397362,0.3391951672\N,0.5097867514,1.4091379182,0.
 0910231123\H,0.3919794179,0.5249299417,0.5704930113\H,0.5717262587,1.1
 909905715,-0.8972419101\C,-0.3775694126,3.6589243366,-0.3058321908\H,-
 1.1977663547,4.3444161821,-0.0997959276\H,-0.2754721925,3.5575889655,-
 1.3878218861\H,0.5467105284,4.0786910079,0.0863300796\C,-1.9518003656,
 1.7279113044,-0.1594121114\H,-0.7162368518,2.4278715425,1.4175691906\O
 ,-2.0820121104,0.8681345596,-0.9923358563\O,-3.008682652,2.3297652493,
 0.4385494715\H,-3.81272329,1.9494586846,0.0543198496\\Version=ES64L-G1
 6RevC.01\HF=-323.8852461\RMSD=2.031e-09\RMSF=7.227e-06\ZeroPoint=0.107
 4347\Thermal=0.1144197\ETot=-323.7708264\HTot=-323.7698822\GTot=-323.8
 08795\Dipole=-0.327844,0.2900688,0.2693299\DipoleDeriv=0.3576907,-0.19
 81881,0.008521,-0.3320234,0.2849095,-0.0529484,-0.0609317,0.0124297,0.
 1644612,-0.7042249,0.1173379,-0.0510328,0.0975615,-0.4082318,-0.013972
 8,-0.0410069,-0.0238392,-0.2395087,0.2204205,-0.0608441,0.0947768,0.01
 34613,0.0249643,0.0459136,0.0871916,0.0085772,0.1668358,0.2706572,0.02
 12136,-0.0751112,0.0698304,0.1413954,-0.0154505,-0.0004148,-0.0233078,
 0.0510612,0.0151219,-0.0297955,-0.0139393,0.0574561,0.0271155,0.032355
 1,-0.0689531,-0.0004742,0.0893378,-0.0239364,0.1065362,0.0265292,0.070
 402,-0.0195428,0.0044265,0.0338283,-0.0137165,0.0581509,0.0665783,-0.0
 135182,0.0151758,0.0002904,0.0261307,-0.0513006,0.0295094,0.0115896,-0
 .1185058,-0.0539853,-0.0930984,-0.0455542,-0.0701804,0.0126341,-0.0062
 622,-0.0456217,-0.0089551,0.0427341,1.3287686,-0.0331626,-0.2436454,-0
 .1368967,0.899699,0.6564944,-0.2214044,0.7202534,0.8322006,0.0046045,0
 .0100887,0.017827,0.0132452,0.0313634,0.0066343,0.0337653,-0.013681,-0
 .0930883,-0.6908928,-0.160133,-0.1040382,0.0309158,-0.7862919,-0.38843
 08,0.034365,-0.4445209,-0.7114851,-1.0767085,0.3571846,0.4054217,0.241
 7085,-0.4951997,-0.1629929,0.2734433,-0.1627318,-0.5027251,0.285906,-0
 .0236212,-0.0349303,-0.0557705,0.2610543,-0.0544657,-0.0537703,-0.0616
 234,0.2605313\Polar=0.,0.,0.,0.,0.,0.\Quadrupole=0.8904925,0.8555857,-
 1.7460782,-2.7421093,-1.6817732,-1.2715316\PG=C01 [X(C3H7N1O2)]\NImag=
 0\\0.45014585,-0.03189061,0.45456901,-0.03434789,0.03287256,0.59786501
 ,-0.14337879,0.04737402,0.01542354,0.25381941,0.09047422,-0.12674828,-
 0.00261709,-0.08905624,0.56067373,0.03866708,-0.01086186,-0.10525009,-
 0.09162277,-0.07285861,0.63497361,-0.00317391,0.02965034,-0.01738555,-
 0.03398922,-0.05345832,0.05577481,0.04018652,-0.00840309,-0.01966288,0
 .00975535,-0.01756335,-0.33202298,0.16762283,0.02370577,0.34676329,-0.
 00275454,-0.00785273,0.00435010,0.03221506,0.14124966,-0.13315997,-0.0
 3801954,-0.16822403,0.14648268,-0.00918568,0.00912335,0.03429553,-0.02
 164864,0.01512762,-0.00929080,-0.00231766,-0.00153153,0.00558293,0.033
 57617,-0.00143242,-0.00548866,-0.02600417,0.02660642,-0.07111752,-0.08
 355426,-0.00377418,0.00642178,0.03737977,-0.02556908,0.07170052,-0.000
 81694,-0.00282945,-0.00750826,0.03601862,-0.06126388,-0.40279956,-0.00
 173998,-0.00753252,-0.01959335,-0.03154106,0.07225124,0.42638197,-0.08
 094585,-0.02695025,0.01556069,0.00088046,0.03198064,-0.01432082,-0.003
 68737,0.00541341,0.00150993,0.00072764,-0.00042851,-0.00033216,0.58064
 729,-0.00888017,-0.14173156,0.03653241,0.00477822,-0.03066761,0.013603
 76,0.00168446,-0.00264557,-0.00130492,-0.00075886,0.00117702,-0.000200
 19,-0.02329074,0.47620575,0.00614066,0.03670113,-0.09465125,-0.0006123
 2,-0.00442639,0.00411168,0.00132517,-0.00224879,0.00021416,-0.00032315
 ,-0.00189616,0.00156373,0.00955954,0.04715037,0.54116020,0.00442084,-0
 .00456909,-0.00224064,0.00050574,-0.00068997,0.00012860,0.00072379,-0.
 00027107,0.00032300,-0.00023124,-0.00014745,0.00002991,-0.20046679,0.1
 2664670,0.03930507,0.21522669,0.02179365,-0.01488637,-0.00809433,-0.00
 101945,-0.00591063,0.00422062,0.00110637,-0.00128345,-0.00069680,-0.00
 012025,0.00030002,0.00014411,0.12262340,-0.15093776,-0.03161216,-0.137
 51894,0.16434460,-0.01202263,0.00679850,0.00188102,0.00010059,0.003415
 72,-0.00110371,-0.00032983,0.00096302,0.00071981,-0.00005085,0.0007037
 5,0.00003497,0.04031598,-0.03317282,-0.05804245,-0.04371433,0.03372447
 ,0.05856714,-0.00208928,0.00024772,0.00647423,0.00011162,0.00010732,-0
 .00087247,-0.00017965,-0.00003296,0.00006509,0.00049957,0.00021027,-0.
 00011210,-0.05014168,0.00245170,0.02246004,-0.00151836,0.00146294,0.02
 474171,0.04890717,-0.00385725,0.00071039,0.03175688,-0.00091778,0.0026
 7836,-0.00050022,-0.00012644,0.00039218,-0.00021891,0.00030209,-0.0004
 5547,-0.00055980,0.00320692,-0.05056916,-0.02903926,0.00013674,-0.0020
 1378,-0.02040479,-0.00133685,0.05450353,0.00260888,-0.00017930,-0.0148
 4798,-0.00020575,-0.00066010,0.00171015,-0.00010923,-0.00005903,0.0003
 8276,-0.00039408,0.00112822,-0.00011257,0.02287755,-0.02760201,-0.3000
 9202,0.00033468,-0.00091274,-0.00476999,-0.02653585,0.02731953,0.32782
 222,-0.00587548,-0.00217864,-0.00158180,0.00130954,0.00101830,-0.00039
 584,0.00019315,0.00005151,0.00013854,-0.00006467,0.00003657,0.00006342
 ,-0.23993660,-0.08676532,-0.08388428,-0.01840183,-0.00928460,-0.008682
 15,0.00393042,0.00215653,0.00132726,0.25827318,-0.02812048,-0.01625575
 ,-0.00906438,0.00034464,0.00286772,-0.00082344,0.00012138,0.00051279,0
 .00020996,-0.00026962,-0.00026364,-0.00004880,-0.08391784,-0.08274783,
 -0.03809627,0.01700394,0.00917535,0.00882948,-0.00237670,-0.00187924,-
 0.00142142,0.09546310,0.09100619,0.01443528,0.00822538,0.00425093,0.00
 012208,-0.00110599,0.00001822,0.00024461,-0.00009795,-0.00009721,-0.00
 031260,-0.00006493,-0.00007064,-0.08496225,-0.03912010,-0.08368375,0.0
 0626754,0.00365244,0.00199939,-0.02773121,-0.01190808,-0.01089284,0.09
 149511,0.03858750,0.08792697,-0.13109664,-0.02180769,-0.02474655,-0.03
 771908,0.00433344,-0.00423917,0.00022213,-0.00026391,-0.00012673,-0.00
 046344,-0.00017816,-0.00101238,-0.00214508,-0.01859439,0.00362464,-0.0
 0014620,0.00268342,0.00025539,0.00036067,0.00133673,-0.00140486,0.0005
 6696,0.00387155,-0.00153957,0.56157464,-0.02651710,-0.08519485,0.00112
 453,0.02337814,0.00029879,0.00246015,0.00388448,0.00084860,0.00139502,
 0.00262252,0.00074271,-0.00017810,-0.02953396,-0.01973204,-0.00865847,
 0.00006054,-0.00157415,-0.00048019,0.00071283,0.00224545,-0.00132392,0
 .00001815,-0.00482717,0.00235434,0.05653309,0.60715500,-0.01990579,0.0
 0452752,-0.09537455,0.00215573,-0.00126872,0.00180853,0.00025750,-0.00
 033047,0.00111534,0.00548374,0.00068257,-0.00012537,0.01486213,0.00175
 091,0.00871285,-0.00045798,-0.00121063,0.00048439,0.00193559,0.0018797
 4,-0.00114178,0.00172087,0.00454895,-0.00237146,0.05101591,0.35711817,
 0.57671098,-0.05116420,0.00305380,0.01242521,-0.00783744,0.00668776,0.
 03065020,0.00095948,-0.00043643,-0.00035910,-0.00359924,0.00405637,0.0
 0084024,0.00014129,0.00004922,0.00614784,0.00029448,0.00010893,-0.0004
 6306,0.00052073,-0.00098294,0.00060931,0.00007898,0.00055341,0.0004193
 2,0.00482263,-0.00165522,-0.03049591,0.06187244,0.00255317,-0.04705986
 ,-0.03018738,0.00663201,-0.00474914,-0.02289979,-0.00059733,0.00033039
 ,-0.00034027,0.00320913,-0.00267390,-0.00087766,-0.00235037,0.00071358
 ,0.03227988,0.00042521,0.00119924,-0.00059682,-0.00116609,-0.00533808,
 0.00257490,0.00012075,0.00159289,-0.00082017,-0.00139977,-0.00209838,-
 0.01644480,-0.00556564,0.06023094,0.01651454,-0.03293873,-0.29767429,0
 .00369299,-0.00252431,-0.00367386,0.00031546,-0.00047275,0.00026566,0.
 00013837,-0.00068511,0.00188248,0.00081037,0.00142551,-0.01401778,-0.0
 0034661,0.00014249,0.00042113,0.00034977,0.00252431,0.00056548,0.00032
 740,-0.00033289,0.00095161,0.00183898,-0.00321957,-0.01477022,-0.02113
 702,0.03611245,0.32319580,0.00295089,-0.02143758,-0.02401054,0.0000578
 7,-0.00454226,-0.00208827,0.00044393,-0.00024868,0.00055652,0.00166287
 ,0.00025077,-0.00097576,-0.00262235,0.00076460,-0.00266280,0.00015028,
 -0.00072701,-0.00006014,0.00000861,0.00024339,0.00052777,0.00002033,-0
 .00143081,0.00089564,-0.13020290,-0.05821494,-0.05593781,-0.00533820,-
 0.00284052,-0.00267360,0.11043234,-0.00282910,-0.01095800,-0.03181284,
 0.00112826,0.00362307,0.00324880,-0.00166586,0.00038536,-0.00129694,-0
 .00117479,-0.00018564,0.00115160,0.00102366,0.00291314,-0.00098304,-0.
 00002536,0.00035396,-0.00005378,-0.00001324,-0.00024574,0.00086845,-0.
 00025666,-0.00031545,0.00045792,-0.07159327,-0.40411272,-0.31626558,-0
 .00533478,-0.00171150,-0.00037021,0.04684293,0.44508306,-0.00598617,-0
 .02957426,-0.00315224,0.00333825,0.00117571,0.00147549,-0.00027074,0.0
 0052280,-0.00013621,-0.00205704,0.00036495,0.00019348,-0.00452128,0.00
 123523,-0.00520732,0.00018687,0.00043765,-0.00001345,-0.00057406,-0.00
 068867,0.00123232,-0.00036074,-0.00199985,0.00185923,-0.06851636,-0.31
 594514,-0.38231923,-0.00044874,-0.00005097,0.00054688,0.04560507,0.401
 09919,0.41813542,-0.03081473,0.01440905,0.01574045,-0.01050779,-0.0019
 7519,-0.00236456,0.00063912,-0.00040116,0.00086659,0.00138491,0.000464
 98,-0.00032950,-0.00277559,0.00197913,-0.00106155,-0.00052002,-0.00076
 765,-0.00014108,-0.00035394,-0.00014629,0.00036448,-0.00022774,-0.0012
 0061,0.00072474,-0.21501434,0.04335798,0.04368580,-0.00145604,0.000944
 86,0.00045517,0.01304548,0.03698263,0.03679133,0.57789054,-0.00499676,
 0.01088496,-0.00114865,-0.00222340,0.00120094,0.00024196,-0.00057229,-
 0.00003057,-0.00030912,-0.00104952,-0.00020071,-0.00003006,0.00163316,
 -0.00206917,0.00054163,-0.00093504,0.00110173,0.00039574,-0.00011522,-
 0.00004757,0.00020366,-0.00044116,0.00099665,-0.00016531,0.02704254,-0
 .10851911,-0.04517710,-0.00061350,-0.00001112,0.00067616,0.04425488,-0
 .02937274,-0.05718747,0.06761551,0.23140017,-0.00392858,-0.00108169,0.
 00928635,-0.00184275,0.00090382,0.00130313,-0.00015229,0.00004818,-0.0
 0057332,-0.00139604,-0.00032947,0.00008239,-0.00085992,-0.00016950,0.0
 0017849,0.00008921,0.00023056,-0.00020933,-0.00031296,-0.00024154,0.00
 020638,-0.00016534,-0.00023071,0.00013986,0.02631749,-0.04478069,-0.10
 682683,0.00162839,0.00097565,0.00191584,0.04350835,-0.05690995,-0.0272
 9112,0.06808716,0.19160823,0.22820351,0.00020700,0.00497557,0.00439332
 ,-0.00160369,-0.00000733,-0.00002598,-0.00002031,-0.00001850,0.0000022
 2,-0.00034060,-0.00009556,-0.00009232,0.00032463,-0.00006455,-0.000018
 86,-0.00003737,-0.00034082,0.00005039,-0.00005587,-0.00001484,-0.00000
 017,0.00013377,-0.00004195,-0.00005869,-0.05075936,-0.01464651,-0.0143
 1977,0.00070511,0.00003459,-0.00028581,0.00939086,-0.00308443,-0.00318
 640,-0.33128985,-0.12959921,-0.13097272,0.37334568,0.00210594,0.001821
 84,-0.00311287,0.00053851,-0.00012647,0.00010006,0.00004162,-0.0000089
 4,0.00000930,0.00008895,0.00004351,-0.00002648,0.00059048,0.00009122,0
 .00028752,-0.00011620,0.00013125,-0.00012228,-0.00015172,0.00001913,0.
 00006377,0.00006148,0.00013748,0.00000495,0.01803641,0.01476787,0.0101
 8943,0.00007901,-0.00042505,-0.00033734,-0.00291478,-0.00545680,0.0006
 1084,-0.16126323,-0.10533346,-0.09002287,0.14290354,0.09433842,0.00139
 611,-0.00380706,0.00082527,0.00121673,-0.00001981,0.00058638,0.0000896
 1,0.00005336,0.00002953,-0.00013495,0.00002360,0.00007072,-0.00049977,
 -0.00012866,-0.00024654,0.00009466,-0.00002568,0.00003108,0.00011222,0
 .00008081,-0.00006212,-0.00000246,-0.00015812,-0.00003030,0.01853320,0
 .01013388,0.01409735,0.00018332,0.00027498,0.00039126,-0.00268442,0.00
 086639,-0.00532326,-0.16281903,-0.08964966,-0.10641536,0.14451479,0.08
 235597,0.09604599\\0.00002048,-0.00001282,0.00001297,-0.00000961,0.000
 00999,0.00000325,-0.00000311,0.00000151,-0.00000129,0.00000201,0.00000
 077,-0.00000296,-0.00000331,0.00001420,-0.00001000,-0.00000016,-0.0000
 0755,0.00000306,-0.00000158,0.00000279,-0.00000295,0.00000576,-0.00000
 989,0.00000117,-0.00000799,-0.00000064,-0.00000578,-0.00000453,0.00000
 648,0.00000350,-0.00000303,0.00000410,0.00000513,0.00001012,-0.0000101
 2,-0.00000802,-0.00000507,0.00000118,0.00000192\\\@
 The archive entry for this job was punched.


 ... THE UNIVERSE IS NOT ONLY QUEERER THAN WE SUPPOSE,
 BUT QUEERER THAN WE CAN SUPPOSE ... 

                                   -- J. B. S. HALDANE
 Job cpu time:       0 days 14 hours 34 minutes 17.0 seconds.
 Elapsed time:       0 days  0 hours 28 minutes  7.5 seconds.
 File lengths (MBytes):  RWF=    326 Int=      0 D2E=      0 Chk=     76 Scr=      1
 Normal termination of Gaussian 16 at Tue Oct 25 13:03:31 2022.
